 running on    1 nodes
 distr:  one band on    1 nodes,    1 groups
 vasp.5.2.12 11Nov11 complex                                                    
  
 POSCAR found :  2 types and       8 ions
 WARNING: PSMAXN for non-local potential too small
 LDA part: xc-table for Pade appr. of Perdew
 POSCAR, INCAR and KPOINTS ok, starting setup
 WARNING: small aliasing (wrap around) errors must be expected
 FFT: planning ...(           3 )
 WAVECAR not read
 entering main loop
       N       E                     dE             d eps       ncg     rms          rms(c)
DAV:   1     0.112550697249E+03    0.11255E+03   -0.19264E+04  1360   0.122E+03
DAV:   2    -0.909994159970E+02   -0.20355E+03   -0.19255E+03  1750   0.216E+02
DAV:   3    -0.103081944151E+03   -0.12083E+02   -0.11873E+02  1842   0.469E+01
DAV:   4    -0.103273632246E+03   -0.19169E+00   -0.19099E+00  1744   0.608E+00
DAV:   5    -0.103276024359E+03   -0.23921E-02   -0.23913E-02  1826   0.647E-01    0.186E+01
DAV:   6    -0.895544418306E+02    0.13722E+02   -0.45640E+01  1634   0.261E+01    0.422E+00
DAV:   7    -0.892567245706E+02    0.29772E+00   -0.17371E+00  1652   0.645E+00    0.256E+00
DAV:   8    -0.890215640883E+02    0.23516E+00   -0.44779E-01  1520   0.277E+00    0.690E-01
DAV:   9    -0.890089232883E+02    0.12641E-01   -0.54623E-02  1706   0.929E-01    0.131E-01
DAV:  10    -0.890087054423E+02    0.21785E-03   -0.45810E-03  1700   0.308E-01    0.680E-02
DAV:  11    -0.890085409598E+02    0.16448E-03   -0.38937E-04  1652   0.969E-02    0.688E-03
DAV:  12    -0.890085410319E+02   -0.72054E-07   -0.47531E-05   864   0.311E-02
   1 F= -.89008541E+02 E0= -.89008496E+02  d E =-.890085E+02
 curvature:   0.00 expect dE= 0.000E+00 dE for cont linesearch  0.000E+00
 trial: gam= 0.00000 g(F)=  0.308E-61 g(S)=  0.000E+00 ort = 0.000E+00 (trialstep = 0.100E+01)
 search vector abs. value=  0.100E-09
 reached required accuracy - stopping structural energy minimisation
 writing wavefunctions
NPROCS =  1
