unknown system                          
   1.00000000000000     
     4.475000    0.000000    0.000000
     0.000000    4.475000    0.000000
     0.000000    0.000000    4.475000
   C    Ta
     4     4
Direct
  0.000000  0.000000  0.500000
  0.000000  0.500000  0.000000
  0.500000  0.000000  0.000000
  0.500000  0.500000  0.500000
  0.000000  0.000000  0.000000
  0.000000  0.500000  0.500000
  0.500000  0.000000  0.500000
  0.500000  0.500000  0.000000
 
   60   60   60
  37.323      36.815      35.486      33.839      32.469      31.839      32.121      33.158      34.537      35.769    
  36.510      36.714      36.659      36.838      37.785      39.928      43.541      48.824      56.044      65.593    
  77.764      92.419      108.85      125.62      140.01      148.74      149.43      142.30      130.79      120.43    
  116.30      120.43      130.79      142.30      149.43      148.74      140.01      125.62      108.85      92.419    
  77.764      65.593      56.044      48.824      43.541      39.928      37.785      36.838      36.659      36.714    
  36.510      35.769      34.537      33.158      32.121      31.839      32.469      33.839      35.486      36.815    
  36.815      36.335      35.086      33.547      32.288      31.744      32.074      33.115      34.463      35.644    
  36.332      36.492      36.408      36.570      37.506      39.633      43.216      48.444      55.576      64.993    
  76.990      91.452      107.70      124.38      138.91      148.15      149.76      143.85      133.61      124.21    
  120.43      124.21      133.61      143.85      149.76      148.15      138.91      124.38      107.70      91.452    
  76.990      64.993      55.576      48.444      43.216      39.633      37.506      36.570      36.408      36.492    
  36.332      35.644      34.463      33.115      32.074      31.744      32.288      33.547      35.086      36.335    
  35.486      35.086      34.052      32.806      31.840      31.522      31.967      33.002      34.247      35.273    
  35.802      35.836      35.671      35.789      36.693      38.774      42.270      47.339      54.215      63.250    
  74.739      88.630      104.33      120.68      135.50      146.00      150.00      147.33      140.45      133.61    
  130.79      133.61      140.45      147.33      150.00      146.00      135.50      120.68      104.33      88.630    
  74.739      63.250      54.215      47.339      42.270      38.774      36.693      35.789      35.671      35.836    
  35.802      35.273      34.247      33.002      31.967      31.522      31.840      32.806      34.052      35.086    
  33.839      33.547      32.806      31.952      31.369      31.328      31.884      32.857      33.903      34.666    
  34.942      34.783      34.499      34.555      35.415      37.424      40.780      45.601      52.078      60.519    
  71.209      84.180      98.956      114.64      129.56      141.46      148.37      149.82      147.33      143.85    
  142.30      143.85      147.33      149.82      148.37      141.46      129.56      114.64      98.956      84.180    
  71.209      60.519      52.078      45.601      40.780      37.424      35.415      34.555      34.499      34.783    
  34.942      34.666      33.903      32.857      31.884      31.328      31.369      31.952      32.806      33.547    
  32.469      32.288      31.840      31.369      31.139      31.318      31.899      32.700      33.433      33.833    
  33.782      33.389      32.974      32.966      33.775      35.692      38.864      43.363      49.336      57.030    
  66.702      78.457      91.989      106.59      121.12      133.86      143.20      148.37      150.00      149.76    
  149.43      149.76      150.00      148.37      143.20      133.86      121.12      106.59      91.989      78.457    
  66.702      57.030      49.336      43.363      38.864      35.692      33.775      32.966      32.974      33.389    
  33.782      33.833      33.433      32.700      31.899      31.318      31.139      31.369      31.840      32.288    
  31.839      31.744      31.522      31.328      31.318      31.567      32.020      32.510      32.819      32.780    
  32.366      31.735      31.200      31.143      31.904      33.710      36.658      40.783      46.186      53.046    
  61.576      71.917      83.939      97.102      110.61      123.29      133.86      141.46      146.00      148.15    
  148.74      148.15      146.00      141.46      133.86      123.29      110.61      97.102      83.939      71.917    
  61.576      53.046      46.186      40.783      36.658      33.710      31.904      31.143      31.200      31.735    
  32.366      32.780      32.819      32.510      32.020      31.567      31.318      31.328      31.522      31.744    
  32.121      32.074      31.967      31.884      31.899      32.020      32.173      32.221      32.026      31.518    
  30.750      29.914      29.297      29.216      29.933      31.611      34.301      38.018      42.824      48.827    
  56.188      65.045      75.382      86.870      98.875      110.61      121.12      129.56      135.50      138.91    
  140.01      138.91      135.50      129.56      121.12      110.61      98.875      86.870      75.382      65.045    
  56.188      48.827      42.824      38.018      34.301      31.611      29.933      29.216      29.297      29.914    
  30.750      31.518      32.026      32.221      32.173      32.020      31.899      31.884      31.967      32.074    
  33.158      33.115      33.002      32.857      32.700      32.510      32.221      31.746      31.027      30.079    
  29.015      28.036      27.388      27.311      27.989      29.520      31.924      35.217      39.424      44.602    
  50.849      58.276      66.913      76.593      86.870      97.102      106.59      114.64      120.68      124.38    
  125.62      124.38      120.68      114.64      106.59      97.102      86.870      76.593      66.913      58.276    
  50.849      44.602      39.424      35.217      31.924      29.520      27.989      27.311      27.388      28.036    
  29.015      30.079      31.027      31.746      32.221      32.510      32.700      32.857      33.002      33.115    
  34.537      34.463      34.247      33.903      33.433      32.819      32.026      31.027      29.836      28.534    
  27.266      26.221      25.591      25.539      26.172      27.536      29.641      32.505      36.134      40.545    
  45.790      51.934      59.005      66.913      75.382      83.939      91.989      98.956      104.33      107.70    
  108.85      107.70      104.33      98.956      91.989      83.939      75.382      66.913      59.005      51.934    
  45.790      40.545      36.134      32.505      29.641      27.536      26.172      25.539      25.591      26.221    
  27.266      28.534      29.836      31.027      32.026      32.819      33.433      33.903      34.247      34.463    
  35.769      35.644      35.273      34.666      33.833      32.780      31.518      30.079      28.534      27.002    
  25.636      24.595      24.015      23.989      24.561      25.740      27.544      29.987      33.066      36.783    
  41.155      46.204      51.934      58.276      65.045      71.917      78.457      84.180      88.630      91.452    
  92.419      91.452      88.630      84.180      78.457      71.917      65.045      58.276      51.934      46.204    
  41.155      36.783      33.066      29.987      27.544      25.740      24.561      23.989      24.015      24.595    
  25.636      27.002      28.534      30.079      31.518      32.780      33.833      34.666      35.273      35.644    
  36.510      36.332      35.802      34.942      33.782      32.366      30.750      29.015      27.266      25.636    
  24.263      23.272      22.746      22.724      23.205      24.191      25.698      27.734      30.300      33.394    
  37.014      41.155      45.790      50.849      56.188      61.576      66.702      71.209      74.739      76.990    
  77.764      76.990      74.739      71.209      66.702      61.576      56.188      50.849      45.790      41.155    
  37.014      33.394      30.300      27.734      25.698      24.191      23.205      22.724      22.746      23.272    
  24.263      25.636      27.266      29.015      30.750      32.366      33.782      34.942      35.802      36.332    
  36.714      36.492      35.836      34.783      33.389      31.735      29.914      28.036      26.221      24.595    
  23.272      22.338      21.840      21.777      22.138      22.925      24.142      25.794      27.886      30.421    
  33.394      36.783      40.545      44.602      48.827      53.046      57.030      60.519      63.250      64.993    
  65.593      64.993      63.250      60.519      57.030      53.046      48.827      44.602      40.545      36.783    
  33.394      30.421      27.886      25.794      24.142      22.925      22.138      21.777      21.840      22.338    
  23.272      24.595      26.221      28.036      29.914      31.735      33.389      34.783      35.836      36.492    
  36.659      36.408      35.671      34.499      32.974      31.200      29.297      27.388      25.591      24.015    
  22.746      21.840      21.313      21.161      21.378      21.957      22.891      24.184      25.846      27.886    
  30.300      33.066      36.134      39.424      42.824      46.186      49.336      52.078      54.215      55.576    
  56.044      55.576      54.215      52.078      49.336      46.186      42.824      39.424      36.134      33.066    
  30.300      27.886      25.846      24.184      22.891      21.957      21.378      21.161      21.313      21.840    
  22.746      24.015      25.591      27.388      29.297      31.200      32.974      34.499      35.671      36.408    
  36.838      36.570      35.789      34.555      32.966      31.143      29.216      27.311      25.539      23.989    
  22.724      21.777      21.161      20.880      20.925      21.281      21.939      22.903      24.184      25.794    
  27.734      29.987      32.505      35.217      38.018      40.783      43.363      45.601      47.339      48.444    
  48.824      48.444      47.339      45.601      43.363      40.783      38.018      35.217      32.505      29.987    
  27.734      25.794      24.184      22.903      21.939      21.281      20.925      20.880      21.161      21.777    
  22.724      23.989      25.539      27.311      29.216      31.143      32.966      34.555      35.789      36.570    
  37.785      37.506      36.693      35.415      33.775      31.904      29.933      27.989      26.172      24.561    
  23.205      22.138      21.378      20.925      20.765      20.884      21.275      21.939      22.891      24.142    
  25.698      27.544      29.641      31.924      34.301      36.658      38.864      40.780      42.270      43.216    
  43.541      43.216      42.270      40.780      38.864      36.658      34.301      31.924      29.641      27.544    
  25.698      24.142      22.891      21.939      21.275      20.884      20.765      20.925      21.378      22.138    
  23.205      24.561      26.172      27.989      29.933      31.904      33.775      35.415      36.693      37.506    
  39.928      39.633      38.774      37.424      35.692      33.710      31.611      29.520      27.536      25.740    
  24.191      22.925      21.957      21.281      20.884      20.754      20.884      21.281      21.957      22.925    
  24.191      25.740      27.536      29.520      31.611      33.710      35.692      37.424      38.774      39.633    
  39.928      39.633      38.774      37.424      35.692      33.710      31.611      29.520      27.536      25.740    
  24.191      22.925      21.957      21.281      20.884      20.754      20.884      21.281      21.957      22.925    
  24.191      25.740      27.536      29.520      31.611      33.710      35.692      37.424      38.774      39.633    
  43.541      43.216      42.270      40.780      38.864      36.658      34.301      31.924      29.641      27.544    
  25.698      24.142      22.891      21.939      21.275      20.884      20.765      20.925      21.378      22.138    
  23.205      24.561      26.172      27.989      29.933      31.904      33.775      35.415      36.693      37.506    
  37.785      37.506      36.693      35.415      33.775      31.904      29.933      27.989      26.172      24.561    
  23.205      22.138      21.378      20.925      20.765      20.884      21.275      21.939      22.891      24.142    
  25.698      27.544      29.641      31.924      34.301      36.658      38.864      40.780      42.270      43.216    
  48.824      48.444      47.339      45.601      43.363      40.783      38.018      35.217      32.505      29.987    
  27.734      25.794      24.184      22.903      21.939      21.281      20.925      20.880      21.161      21.777    
  22.724      23.989      25.539      27.311      29.216      31.143      32.966      34.555      35.789      36.570    
  36.838      36.570      35.789      34.555      32.966      31.143      29.216      27.311      25.539      23.989    
  22.724      21.777      21.161      20.880      20.925      21.281      21.939      22.903      24.184      25.794    
  27.734      29.987      32.505      35.217      38.018      40.783      43.363      45.601      47.339      48.444    
  56.044      55.576      54.215      52.078      49.336      46.186      42.824      39.424      36.134      33.066    
  30.300      27.886      25.846      24.184      22.891      21.957      21.378      21.161      21.313      21.840    
  22.746      24.015      25.591      27.388      29.297      31.200      32.974      34.499      35.671      36.408    
  36.659      36.408      35.671      34.499      32.974      31.200      29.297      27.388      25.591      24.015    
  22.746      21.840      21.313      21.161      21.378      21.957      22.891      24.184      25.846      27.886    
  30.300      33.066      36.134      39.424      42.824      46.186      49.336      52.078      54.215      55.576    
  65.593      64.993      63.250      60.519      57.030      53.046      48.827      44.602      40.545      36.783    
  33.394      30.421      27.886      25.794      24.142      22.925      22.138      21.777      21.840      22.338    
  23.272      24.595      26.221      28.036      29.914      31.735      33.389      34.783      35.836      36.492    
  36.714      36.492      35.836      34.783      33.389      31.735      29.914      28.036      26.221      24.595    
  23.272      22.338      21.840      21.777      22.138      22.925      24.142      25.794      27.886      30.421    
  33.394      36.783      40.545      44.602      48.827      53.046      57.030      60.519      63.250      64.993    
  77.764      76.990      74.739      71.209      66.702      61.576      56.188      50.849      45.790      41.155    
  37.014      33.394      30.300      27.734      25.698      24.191      23.205      22.724      22.746      23.272    
  24.263      25.636      27.266      29.015      30.750      32.366      33.782      34.942      35.802      36.332    
  36.510      36.332      35.802      34.942      33.782      32.366      30.750      29.015      27.266      25.636    
  24.263      23.272      22.746      22.724      23.205      24.191      25.698      27.734      30.300      33.394    
  37.014      41.155      45.790      50.849      56.188      61.576      66.702      71.209      74.739      76.990    
  92.419      91.452      88.630      84.180      78.457      71.917      65.045      58.276      51.934      46.204    
  41.155      36.783      33.066      29.987      27.544      25.740      24.561      23.989      24.015      24.595    
  25.636      27.002      28.534      30.079      31.518      32.780      33.833      34.666      35.273      35.644    
  35.769      35.644      35.273      34.666      33.833      32.780      31.518      30.079      28.534      27.002    
  25.636      24.595      24.015      23.989      24.561      25.740      27.544      29.987      33.066      36.783    
  41.155      46.204      51.934      58.276      65.045      71.917      78.457      84.180      88.630      91.452    
  108.85      107.70      104.33      98.956      91.989      83.939      75.382      66.913      59.005      51.934    
  45.790      40.545      36.134      32.505      29.641      27.536      26.172      25.539      25.591      26.221    
  27.266      28.534      29.836      31.027      32.026      32.819      33.433      33.903      34.247      34.463    
  34.537      34.463      34.247      33.903      33.433      32.819      32.026      31.027      29.836      28.534    
  27.266      26.221      25.591      25.539      26.172      27.536      29.641      32.505      36.134      40.545    
  45.790      51.934      59.005      66.913      75.382      83.939      91.989      98.956      104.33      107.70    
  125.62      124.38      120.68      114.64      106.59      97.102      86.870      76.593      66.913      58.276    
  50.849      44.602      39.424      35.217      31.924      29.520      27.989      27.311      27.388      28.036    
  29.015      30.079      31.027      31.746      32.221      32.510      32.700      32.857      33.002      33.115    
  33.158      33.115      33.002      32.857      32.700      32.510      32.221      31.746      31.027      30.079    
  29.015      28.036      27.388      27.311      27.989      29.520      31.924      35.217      39.424      44.602    
  50.849      58.276      66.913      76.593      86.870      97.102      106.59      114.64      120.68      124.38    
  140.01      138.91      135.50      129.56      121.12      110.61      98.875      86.870      75.382      65.045    
  56.188      48.827      42.824      38.018      34.301      31.611      29.933      29.216      29.297      29.914    
  30.750      31.518      32.026      32.221      32.173      32.020      31.899      31.884      31.967      32.074    
  32.121      32.074      31.967      31.884      31.899      32.020      32.173      32.221      32.026      31.518    
  30.750      29.914      29.297      29.216      29.933      31.611      34.301      38.018      42.824      48.827    
  56.188      65.045      75.382      86.870      98.875      110.61      121.12      129.56      135.50      138.91    
  148.74      148.15      146.00      141.46      133.86      123.29      110.61      97.102      83.939      71.917    
  61.576      53.046      46.186      40.783      36.658      33.710      31.904      31.143      31.200      31.735    
  32.366      32.780      32.819      32.510      32.020      31.567      31.318      31.328      31.522      31.744    
  31.839      31.744      31.522      31.328      31.318      31.567      32.020      32.510      32.819      32.780    
  32.366      31.735      31.200      31.143      31.904      33.710      36.658      40.783      46.186      53.046    
  61.576      71.917      83.939      97.102      110.61      123.29      133.86      141.46      146.00      148.15    
  149.43      149.76      150.00      148.37      143.20      133.86      121.12      106.59      91.989      78.457    
  66.702      57.030      49.336      43.363      38.864      35.692      33.775      32.966      32.974      33.389    
  33.782      33.833      33.433      32.700      31.899      31.318      31.139      31.369      31.840      32.288    
  32.469      32.288      31.840      31.369      31.139      31.318      31.899      32.700      33.433      33.833    
  33.782      33.389      32.974      32.966      33.775      35.692      38.864      43.363      49.336      57.030    
  66.702      78.457      91.989      106.59      121.12      133.86      143.20      148.37      150.00      149.76    
  142.30      143.85      147.33      149.82      148.37      141.46      129.56      114.64      98.956      84.180    
  71.209      60.519      52.078      45.601      40.780      37.424      35.415      34.555      34.499      34.783    
  34.942      34.666      33.903      32.857      31.884      31.328      31.369      31.952      32.806      33.547    
  33.839      33.547      32.806      31.952      31.369      31.328      31.884      32.857      33.903      34.666    
  34.942      34.783      34.499      34.555      35.415      37.424      40.780      45.601      52.078      60.519    
  71.209      84.180      98.956      114.64      129.56      141.46      148.37      149.82      147.33      143.85    
  130.79      133.61      140.45      147.33      150.00      146.00      135.50      120.68      104.33      88.630    
  74.739      63.250      54.215      47.339      42.270      38.774      36.693      35.789      35.671      35.836    
  35.802      35.273      34.247      33.002      31.967      31.522      31.840      32.806      34.052      35.086    
  35.486      35.086      34.052      32.806      31.840      31.522      31.967      33.002      34.247      35.273    
  35.802      35.836      35.671      35.789      36.693      38.774      42.270      47.339      54.215      63.250    
  74.739      88.630      104.33      120.68      135.50      146.00      150.00      147.33      140.45      133.61    
  120.43      124.21      133.61      143.85      149.76      148.15      138.91      124.38      107.70      91.452    
  76.990      64.993      55.576      48.444      43.216      39.633      37.506      36.570      36.408      36.492    
  36.332      35.644      34.463      33.115      32.074      31.744      32.288      33.547      35.086      36.335    
  36.815      36.335      35.086      33.547      32.288      31.744      32.074      33.115      34.463      35.644    
  36.332      36.492      36.408      36.570      37.506      39.633      43.216      48.444      55.576      64.993    
  76.990      91.452      107.70      124.38      138.91      148.15      149.76      143.85      133.61      124.21    
  116.30      120.43      130.79      142.30      149.43      148.74      140.01      125.62      108.85      92.419    
  77.764      65.593      56.044      48.824      43.541      39.928      37.785      36.838      36.659      36.714    
  36.510      35.769      34.537      33.158      32.121      31.839      32.469      33.839      35.486      36.815    
  37.323      36.815      35.486      33.839      32.469      31.839      32.121      33.158      34.537      35.769    
  36.510      36.714      36.659      36.838      37.785      39.928      43.541      48.824      56.044      65.593    
  77.764      92.419      108.85      125.62      140.01      148.74      149.43      142.30      130.79      120.43    
  120.43      124.21      133.61      143.85      149.76      148.15      138.91      124.38      107.70      91.452    
  76.990      64.993      55.576      48.444      43.216      39.633      37.506      36.570      36.408      36.492    
  36.332      35.644      34.463      33.115      32.074      31.744      32.288      33.547      35.086      36.335    
  36.815      36.335      35.086      33.547      32.288      31.744      32.074      33.115      34.463      35.644    
  36.332      36.492      36.408      36.570      37.506      39.633      43.216      48.444      55.576      64.993    
  76.990      91.452      107.70      124.38      138.91      148.15      149.76      143.85      133.61      124.21    
  130.79      133.61      140.45      147.33      150.00      146.00      135.50      120.68      104.33      88.630    
  74.739      63.250      54.215      47.339      42.270      38.774      36.693      35.789      35.671      35.836    
  35.802      35.273      34.247      33.002      31.967      31.522      31.840      32.806      34.052      35.086    
  35.486      35.086      34.052      32.806      31.840      31.522      31.967      33.002      34.247      35.273    
  35.802      35.836      35.671      35.789      36.693      38.774      42.270      47.339      54.215      63.250    
  74.739      88.630      104.33      120.68      135.50      146.00      150.00      147.33      140.45      133.61    
  142.30      143.85      147.33      149.82      148.37      141.46      129.56      114.64      98.956      84.180    
  71.209      60.519      52.078      45.601      40.780      37.424      35.415      34.555      34.499      34.783    
  34.942      34.666      33.903      32.857      31.884      31.328      31.369      31.952      32.806      33.547    
  33.839      33.547      32.806      31.952      31.369      31.328      31.884      32.857      33.903      34.666    
  34.942      34.783      34.499      34.555      35.415      37.424      40.780      45.601      52.078      60.519    
  71.209      84.180      98.956      114.64      129.56      141.46      148.37      149.82      147.33      143.85    
  149.43      149.76      150.00      148.37      143.20      133.86      121.12      106.59      91.989      78.457    
  66.702      57.030      49.336      43.363      38.864      35.692      33.775      32.966      32.974      33.389    
  33.782      33.833      33.433      32.700      31.899      31.318      31.139      31.369      31.840      32.288    
  32.469      32.288      31.840      31.369      31.139      31.318      31.899      32.700      33.433      33.833    
  33.782      33.389      32.974      32.966      33.775      35.692      38.864      43.363      49.336      57.030    
  66.702      78.457      91.989      106.59      121.12      133.86      143.20      148.37      150.00      149.76    
  148.74      148.15      146.00      141.46      133.86      123.29      110.61      97.102      83.939      71.917    
  61.576      53.046      46.186      40.783      36.658      33.710      31.904      31.143      31.200      31.735    
  32.366      32.780      32.819      32.510      32.020      31.567      31.318      31.328      31.522      31.744    
  31.839      31.744      31.522      31.328      31.318      31.567      32.020      32.510      32.819      32.780    
  32.366      31.735      31.200      31.143      31.904      33.710      36.658      40.783      46.186      53.046    
  61.576      71.917      83.939      97.102      110.61      123.29      133.86      141.46      146.00      148.15    
  140.01      138.91      135.50      129.56      121.12      110.61      98.875      86.870      75.382      65.045    
  56.188      48.827      42.824      38.018      34.301      31.611      29.933      29.216      29.297      29.914    
  30.750      31.518      32.026      32.221      32.173      32.020      31.899      31.884      31.967      32.074    
  32.121      32.074      31.967      31.884      31.899      32.020      32.173      32.221      32.026      31.518    
  30.750      29.914      29.297      29.216      29.933      31.611      34.301      38.018      42.824      48.827    
  56.188      65.045      75.382      86.870      98.875      110.61      121.12      129.56      135.50      138.91    
  125.62      124.38      120.68      114.64      106.59      97.102      86.870      76.593      66.913      58.276    
  50.849      44.602      39.424      35.217      31.924      29.520      27.989      27.311      27.388      28.036    
  29.015      30.079      31.027      31.746      32.221      32.510      32.700      32.857      33.002      33.115    
  33.158      33.115      33.002      32.857      32.700      32.510      32.221      31.746      31.027      30.079    
  29.015      28.036      27.388      27.311      27.989      29.520      31.924      35.217      39.424      44.602    
  50.849      58.276      66.913      76.593      86.870      97.102      106.59      114.64      120.68      124.38    
  108.85      107.70      104.33      98.956      91.989      83.939      75.382      66.913      59.005      51.934    
  45.790      40.545      36.134      32.505      29.641      27.536      26.172      25.539      25.591      26.221    
  27.266      28.534      29.836      31.027      32.026      32.819      33.433      33.903      34.247      34.463    
  34.537      34.463      34.247      33.903      33.433      32.819      32.026      31.027      29.836      28.534    
  27.266      26.221      25.591      25.539      26.172      27.536      29.641      32.505      36.134      40.545    
  45.790      51.934      59.005      66.913      75.382      83.939      91.989      98.956      104.33      107.70    
  92.419      91.452      88.630      84.180      78.457      71.917      65.045      58.276      51.934      46.204    
  41.155      36.783      33.066      29.987      27.544      25.740      24.561      23.989      24.015      24.595    
  25.636      27.002      28.534      30.079      31.518      32.780      33.833      34.666      35.273      35.644    
  35.769      35.644      35.273      34.666      33.833      32.780      31.518      30.079      28.534      27.002    
  25.636      24.595      24.015      23.989      24.561      25.740      27.544      29.987      33.066      36.783    
  41.155      46.204      51.934      58.276      65.045      71.917      78.457      84.180      88.630      91.452    
  77.764      76.990      74.739      71.209      66.702      61.576      56.188      50.849      45.790      41.155    
  37.014      33.394      30.300      27.734      25.698      24.191      23.205      22.724      22.746      23.272    
  24.263      25.636      27.266      29.015      30.750      32.366      33.782      34.942      35.802      36.332    