unknown system                          
   1.00000000000000     
     4.475000    0.000000    0.000000
     0.000000    4.475000    0.000000
     0.000000    0.000000    4.475000
   C    Ta
     4     4
Direct
  0.000000  0.000000  0.500000
  0.000000  0.500000  0.000000
  0.500000  0.000000  0.000000
  0.500000  0.500000  0.500000
  0.000000  0.000000  0.000000
  0.000000  0.500000  0.500000
  0.500000  0.000000  0.500000
  0.500000  0.500000  0.000000
 
   60   60   60
 0.37323100921E+02 0.36814554786E+02 0.35485773156E+02 0.33838991114E+02 0.32469424621E+02
 0.31838807281E+02 0.32121082779E+02 0.33158243582E+02 0.34537061324E+02 0.35769488547E+02
 0.36510406085E+02 0.36714115311E+02 0.36658618650E+02 0.36837689643E+02 0.37785429199E+02
 0.39927939091E+02 0.43540820421E+02 0.48823588703E+02 0.56043740024E+02 0.65592756278E+02
 0.77764378234E+02 0.92419223782E+02 0.10885499679E+03 0.12561613819E+03 0.14001120201E+03
 0.14874018609E+03 0.14942843912E+03 0.14229524737E+03 0.13078627499E+03 0.12043028419E+03
 0.11629619039E+03 0.12043028419E+03 0.13078627499E+03 0.14229524737E+03 0.14942843912E+03
 0.14874018609E+03 0.14001120201E+03 0.12561613819E+03 0.10885499679E+03 0.92419223782E+02
 0.77764378234E+02 0.65592756278E+02 0.56043740024E+02 0.48823588703E+02 0.43540820421E+02
 0.39927939091E+02 0.37785429199E+02 0.36837689643E+02 0.36658618650E+02 0.36714115311E+02
 0.36510406085E+02 0.35769488547E+02 0.34537061324E+02 0.33158243582E+02 0.32121082779E+02
 0.31838807281E+02 0.32469424621E+02 0.33838991114E+02 0.35485773156E+02 0.36814554786E+02
 0.36814554786E+02 0.36335234679E+02 0.35085950252E+02 0.33547484209E+02 0.32287810932E+02
 0.31743867556E+02 0.32073580536E+02 0.33115012302E+02 0.34462760159E+02 0.35644338531E+02
 0.36331671192E+02 0.36491720387E+02 0.36407500933E+02 0.36570223424E+02 0.37506486556E+02
 0.39633105987E+02 0.43216052770E+02 0.48444371332E+02 0.55575958262E+02 0.64993082771E+02
 0.76990473726E+02 0.91452293319E+02 0.10770386606E+03 0.12437507130E+03 0.13891234132E+03
 0.14814912853E+03 0.14975836488E+03 0.14385173894E+03 0.13360749870E+03 0.12420780329E+03
 0.12043028419E+03 0.12420780329E+03 0.13360749870E+03 0.14385173894E+03 0.14975836488E+03
 0.14814912853E+03 0.13891234132E+03 0.12437507130E+03 0.10770386606E+03 0.91452293319E+02
 0.76990473726E+02 0.64993082771E+02 0.55575958262E+02 0.48444371332E+02 0.43216052770E+02
 0.39633105987E+02 0.37506486556E+02 0.36570223424E+02 0.36407500933E+02 0.36491720387E+02
 0.36331671192E+02 0.35644338531E+02 0.34462760159E+02 0.33115012302E+02 0.32073580536E+02
 0.31743867556E+02 0.32287810932E+02 0.33547484209E+02 0.35085950252E+02 0.36335234679E+02
 0.35485773156E+02 0.35085950252E+02 0.34052427016E+02 0.32806407148E+02 0.31840283888E+02
 0.31522414314E+02 0.31966941145E+02 0.33002327797E+02 0.34246813675E+02 0.35273194676E+02
 0.35802197810E+02 0.35836192188E+02 0.35671021671E+02 0.35788833457E+02 0.36693361384E+02
 0.38774144914E+02 0.42269628726E+02 0.47339484781E+02 0.54214691743E+02 0.63249650969E+02
 0.74738693866E+02 0.88630287588E+02 0.10432621805E+03 0.12067535192E+03 0.13549884878E+03
 0.14600067190E+03 0.14999790796E+03 0.14732631705E+03 0.14044857358E+03 0.13360749870E+03
 0.13078627499E+03 0.13360749870E+03 0.14044857358E+03 0.14732631705E+03 0.14999790796E+03
 0.14600067190E+03 0.13549884878E+03 0.12067535192E+03 0.10432621805E+03 0.88630287588E+02
 0.74738693866E+02 0.63249650969E+02 0.54214691743E+02 0.47339484781E+02 0.42269628726E+02
 0.38774144914E+02 0.36693361384E+02 0.35788833457E+02 0.35671021671E+02 0.35836192188E+02
 0.35802197810E+02 0.35273194676E+02 0.34246813675E+02 0.33002327797E+02 0.31966941145E+02
 0.31522414314E+02 0.31840283888E+02 0.32806407148E+02 0.34052427016E+02 0.35085950252E+02
 0.33838991114E+02 0.33547484209E+02 0.32806407148E+02 0.31951856443E+02 0.31368576478E+02
 0.31328047901E+02 0.31884335861E+02 0.32856519222E+02 0.33902561712E+02 0.34666103214E+02
 0.34941724272E+02 0.34782687185E+02 0.34499469719E+02 0.34555143978E+02 0.35414586662E+02
 0.37423975780E+02 0.40780282409E+02 0.45600895104E+02 0.52077703470E+02 0.60518839000E+02
 0.71209020512E+02 0.84180129116E+02 0.98956353961E+02 0.11464018063E+03 0.12956325864E+03
 0.14145637518E+03 0.14837468843E+03 0.14982462592E+03 0.14732631705E+03 0.14385173894E+03
 0.14229524737E+03 0.14385173894E+03 0.14732631705E+03 0.14982462592E+03 0.14837468843E+03
 0.14145637518E+03 0.12956325864E+03 0.11464018063E+03 0.98956353961E+02 0.84180129116E+02
 0.71209020512E+02 0.60518839000E+02 0.52077703470E+02 0.45600895104E+02 0.40780282409E+02
 0.37423975780E+02 0.35414586662E+02 0.34555143978E+02 0.34499469719E+02 0.34782687185E+02
 0.34941724272E+02 0.34666103214E+02 0.33902561712E+02 0.32856519222E+02 0.31884335861E+02
 0.31328047901E+02 0.31368576478E+02 0.31951856443E+02 0.32806407148E+02 0.33547484209E+02
 0.32469424621E+02 0.32287810932E+02 0.31840283888E+02 0.31368576478E+02 0.31138913601E+02
 0.31318062740E+02 0.31899072407E+02 0.32699596116E+02 0.33433085832E+02 0.33832784428E+02
 0.33781844350E+02 0.33389328302E+02 0.32974058397E+02 0.32965999508E+02 0.33775347753E+02
 0.35692303337E+02 0.38864388040E+02 0.43363196026E+02 0.49336183214E+02 0.57029674285E+02
 0.66702473947E+02 0.78457290486E+02 0.91988873455E+02 0.10659448157E+03 0.12111675592E+03
 0.13386259958E+03 0.14319972353E+03 0.14837468843E+03 0.14999790796E+03 0.14975836488E+03
 0.14942843912E+03 0.14975836488E+03 0.14999790796E+03 0.14837468843E+03 0.14319972353E+03
 0.13386259958E+03 0.12111675592E+03 0.10659448157E+03 0.91988873455E+02 0.78457290486E+02
 0.66702473947E+02 0.57029674285E+02 0.49336183214E+02 0.43363196026E+02 0.38864388040E+02
 0.35692303337E+02 0.33775347753E+02 0.32965999508E+02 0.32974058397E+02 0.33389328302E+02
 0.33781844350E+02 0.33832784428E+02 0.33433085832E+02 0.32699596116E+02 0.31899072407E+02
 0.31318062740E+02 0.31138913601E+02 0.31368576478E+02 0.31840283888E+02 0.32287810932E+02
 0.31838807281E+02 0.31743867556E+02 0.31522414314E+02 0.31328047901E+02 0.31318062740E+02
 0.31566776375E+02 0.32020462847E+02 0.32510425422E+02 0.32819436002E+02 0.32779880983E+02
 0.32365582155E+02 0.31734595311E+02 0.31200132221E+02 0.31142579999E+02 0.31903673163E+02
 0.33709930516E+02 0.36658282144E+02 0.40782662864E+02 0.46186444762E+02 0.53045817811E+02
 0.61575771864E+02 0.71916903270E+02 0.83939239017E+02 0.97101628475E+02 0.11060782799E+03
 0.12328987078E+03 0.13386259958E+03 0.14145637518E+03 0.14600067190E+03 0.14814912853E+03
 0.14874018609E+03 0.14814912853E+03 0.14600067190E+03 0.14145637518E+03 0.13386259958E+03
 0.12328987078E+03 0.11060782799E+03 0.97101628475E+02 0.83939239017E+02 0.71916903270E+02
 0.61575771864E+02 0.53045817811E+02 0.46186444762E+02 0.40782662864E+02 0.36658282144E+02
 0.33709930516E+02 0.31903673163E+02 0.31142579999E+02 0.31200132221E+02 0.31734595311E+02
 0.32365582155E+02 0.32779880983E+02 0.32819436002E+02 0.32510425422E+02 0.32020462847E+02
 0.31566776375E+02 0.31318062740E+02 0.31328047901E+02 0.31522414314E+02 0.31743867556E+02
 0.32121082779E+02 0.32073580536E+02 0.31966941145E+02 0.31884335861E+02 0.31899072407E+02
 0.32020462847E+02 0.32173308843E+02 0.32221444111E+02 0.32026265515E+02 0.31517968542E+02
 0.30750356416E+02 0.29913647062E+02 0.29296953867E+02 0.29215564450E+02 0.29933421559E+02
 0.31611359054E+02 0.34301114364E+02 0.38018042589E+02 0.42823869269E+02 0.48827461605E+02
 0.56187504766E+02 0.65044516329E+02 0.75382123431E+02 0.86870456541E+02 0.98874869874E+02
 0.11060782799E+03 0.12111675592E+03 0.12956325864E+03 0.13549884878E+03 0.13891234132E+03
 0.14001120201E+03 0.13891234132E+03 0.13549884878E+03 0.12956325864E+03 0.12111675592E+03
 0.11060782799E+03 0.98874869874E+02 0.86870456541E+02 0.75382123431E+02 0.65044516329E+02
 0.56187504766E+02 0.48827461605E+02 0.42823869269E+02 0.38018042589E+02 0.34301114364E+02
 0.31611359054E+02 0.29933421559E+02 0.29215564450E+02 0.29296953867E+02 0.29913647062E+02
 0.30750356416E+02 0.31517968542E+02 0.32026265515E+02 0.32221444111E+02 0.32173308843E+02
 0.32020462847E+02 0.31899072407E+02 0.31884335861E+02 0.31966941145E+02 0.32073580536E+02
 0.33158243582E+02 0.33115012302E+02 0.33002327797E+02 0.32856519222E+02 0.32699596116E+02
 0.32510425422E+02 0.32221444111E+02 0.31746269167E+02 0.31026800456E+02 0.30078761815E+02
 0.29015032285E+02 0.28035617670E+02 0.27387603876E+02 0.27310771911E+02 0.27988534228E+02
 0.29519601100E+02 0.31923979435E+02 0.35216574158E+02 0.39424320331E+02 0.44601593668E+02
 0.50848526714E+02 0.58275881331E+02 0.66913291316E+02 0.76593023975E+02 0.86870456541E+02
 0.97101628475E+02 0.10659448157E+03 0.11464018063E+03 0.12067535192E+03 0.12437507130E+03
 0.12561613819E+03 0.12437507130E+03 0.12067535192E+03 0.11464018063E+03 0.10659448157E+03
 0.97101628475E+02 0.86870456541E+02 0.76593023975E+02 0.66913291316E+02 0.58275881331E+02
 0.50848526714E+02 0.44601593668E+02 0.39424320331E+02 0.35216574158E+02 0.31923979435E+02
 0.29519601100E+02 0.27988534228E+02 0.27310771911E+02 0.27387603876E+02 0.28035617670E+02
 0.29015032285E+02 0.30078761815E+02 0.31026800456E+02 0.31746269167E+02 0.32221444111E+02
 0.32510425422E+02 0.32699596116E+02 0.32856519222E+02 0.33002327797E+02 0.33115012302E+02
 0.34537061324E+02 0.34462760159E+02 0.34246813675E+02 0.33902561712E+02 0.33433085832E+02
 0.32819436002E+02 0.32026265515E+02 0.31026800456E+02 0.29835964870E+02 0.28533860431E+02
 0.27266252096E+02 0.26221001640E+02 0.25591080415E+02 0.25538851325E+02 0.26172152320E+02
 0.27535923179E+02 0.29641152452E+02 0.32505389201E+02 0.36134020917E+02 0.40545439948E+02
 0.45789727918E+02 0.51933709002E+02 0.59005203139E+02 0.66913291316E+02 0.75382123431E+02
 0.83939239017E+02 0.91988873455E+02 0.98956353961E+02 0.10432621805E+03 0.10770386606E+03
 0.10885499679E+03 0.10770386606E+03 0.10432621805E+03 0.98956353961E+02 0.91988873455E+02
 0.83939239017E+02 0.75382123431E+02 0.66913291316E+02 0.59005203139E+02 0.51933709002E+02
 0.45789727918E+02 0.40545439948E+02 0.36134020917E+02 0.32505389201E+02 0.29641152452E+02
 0.27535923179E+02 0.26172152320E+02 0.25538851325E+02 0.25591080415E+02 0.26221001640E+02
 0.27266252096E+02 0.28533860431E+02 0.29835964870E+02 0.31026800456E+02 0.32026265515E+02
 0.32819436002E+02 0.33433085832E+02 0.33902561712E+02 0.34246813675E+02 0.34462760159E+02
 0.35769488547E+02 0.35644338531E+02 0.35273194676E+02 0.34666103214E+02 0.33832784428E+02
 0.32779880983E+02 0.31517968542E+02 0.30078761815E+02 0.28533860431E+02 0.27001811398E+02
 0.25635599264E+02 0.24594698798E+02 0.24014955896E+02 0.23988942966E+02 0.24561086252E+02
 0.25739734723E+02 0.27544023672E+02 0.29986548818E+02 0.33065947175E+02 0.36783404945E+02
 0.41154569217E+02 0.46203834178E+02 0.51933709002E+02 0.58275881331E+02 0.65044516329E+02
 0.71916903270E+02 0.78457290486E+02 0.84180129116E+02 0.88630287588E+02 0.91452293319E+02
 0.92419223782E+02 0.91452293319E+02 0.88630287588E+02 0.84180129116E+02 0.78457290486E+02
 0.71916903270E+02 0.65044516329E+02 0.58275881331E+02 0.51933709002E+02 0.46203834178E+02
 0.41154569217E+02 0.36783404945E+02 0.33065947175E+02 0.29986548818E+02 0.27544023672E+02
 0.25739734723E+02 0.24561086252E+02 0.23988942966E+02 0.24014955896E+02 0.24594698798E+02
 0.25635599264E+02 0.27001811398E+02 0.28533860431E+02 0.30078761815E+02 0.31517968542E+02
 0.32779880983E+02 0.33832784428E+02 0.34666103214E+02 0.35273194676E+02 0.35644338531E+02
 0.36510406085E+02 0.36331671192E+02 0.35802197810E+02 0.34941724272E+02 0.33781844350E+02
 0.32365582155E+02 0.30750356416E+02 0.29015032285E+02 0.27266252096E+02 0.25635599264E+02
 0.24263026369E+02 0.23271638925E+02 0.22745981888E+02 0.22723980628E+02 0.23204938258E+02
 0.24190878022E+02 0.25698096798E+02 0.27734197339E+02 0.30300088561E+02 0.33393988624E+02
 0.37014117140E+02 0.41154569217E+02 0.45789727918E+02 0.50848526714E+02 0.56187504766E+02
 0.61575771864E+02 0.66702473947E+02 0.71209020512E+02 0.74738693866E+02 0.76990473726E+02
 0.77764378234E+02 0.76990473726E+02 0.74738693866E+02 0.71209020512E+02 0.66702473947E+02
 0.61575771864E+02 0.56187504766E+02 0.50848526714E+02 0.45789727918E+02 0.41154569217E+02
 0.37014117140E+02 0.33393988624E+02 0.30300088561E+02 0.27734197339E+02 0.25698096798E+02
 0.24190878022E+02 0.23204938258E+02 0.22723980628E+02 0.22745981888E+02 0.23271638925E+02
 0.24263026369E+02 0.25635599264E+02 0.27266252096E+02 0.29015032285E+02 0.30750356416E+02
 0.32365582155E+02 0.33781844350E+02 0.34941724272E+02 0.35802197810E+02 0.36331671192E+02
 0.36714115311E+02 0.36491720387E+02 0.35836192188E+02 0.34782687185E+02 0.33389328302E+02
 0.31734595311E+02 0.29913647062E+02 0.28035617670E+02 0.26221001640E+02 0.24594698798E+02
 0.23271638925E+02 0.22338379772E+02 0.21839537815E+02 0.21776884360E+02 0.22137903433E+02
 0.22925306111E+02 0.24142204069E+02 0.25793717139E+02 0.27885838813E+02 0.30421229761E+02
 0.33393988624E+02 0.36783404945E+02 0.40545439948E+02 0.44601593668E+02 0.48827461605E+02
 0.53045817811E+02 0.57029674285E+02 0.60518839000E+02 0.63249650969E+02 0.64993082771E+02
 0.65592756278E+02 0.64993082771E+02 0.63249650969E+02 0.60518839000E+02 0.57029674285E+02
 0.53045817811E+02 0.48827461605E+02 0.44601593668E+02 0.40545439948E+02 0.36783404945E+02
 0.33393988624E+02 0.30421229761E+02 0.27885838813E+02 0.25793717139E+02 0.24142204069E+02
 0.22925306111E+02 0.22137903433E+02 0.21776884360E+02 0.21839537815E+02 0.22338379772E+02
 0.23271638925E+02 0.24594698798E+02 0.26221001640E+02 0.28035617670E+02 0.29913647062E+02
 0.31734595311E+02 0.33389328302E+02 0.34782687185E+02 0.35836192188E+02 0.36491720387E+02
 0.36658618650E+02 0.36407500933E+02 0.35671021671E+02 0.34499469719E+02 0.32974058397E+02
 0.31200132221E+02 0.29296953867E+02 0.27387603876E+02 0.25591080415E+02 0.24014955896E+02
 0.22745981888E+02 0.21839537815E+02 0.21313080752E+02 0.21160639500E+02 0.21378124468E+02
 0.21956585530E+02 0.22890688105E+02 0.24183908069E+02 0.25846149667E+02 0.27885838813E+02
 0.30300088561E+02 0.33065947175E+02 0.36134020917E+02 0.39424320331E+02 0.42823869269E+02
 0.46186444762E+02 0.49336183214E+02 0.52077703470E+02 0.54214691743E+02 0.55575958262E+02
 0.56043740024E+02 0.55575958262E+02 0.54214691743E+02 0.52077703470E+02 0.49336183214E+02
 0.46186444762E+02 0.42823869269E+02 0.39424320331E+02 0.36134020917E+02 0.33065947175E+02
 0.30300088561E+02 0.27885838813E+02 0.25846149667E+02 0.24183908069E+02 0.22890688105E+02
 0.21956585530E+02 0.21378124468E+02 0.21160639500E+02 0.21313080752E+02 0.21839537815E+02
 0.22745981888E+02 0.24014955896E+02 0.25591080415E+02 0.27387603876E+02 0.29296953867E+02
 0.31200132221E+02 0.32974058397E+02 0.34499469719E+02 0.35671021671E+02 0.36407500933E+02
 0.36837689643E+02 0.36570223424E+02 0.35788833457E+02 0.34555143978E+02 0.32965999508E+02
 0.31142579999E+02 0.29215564450E+02 0.27310771911E+02 0.25538851325E+02 0.23988942966E+02
 0.22723980628E+02 0.21776884360E+02 0.21160639500E+02 0.20879898478E+02 0.20924773066E+02
 0.21280765618E+02 0.21939341354E+02 0.22903172017E+02 0.24183908069E+02 0.25793717139E+02
 0.27734197339E+02 0.29986548818E+02 0.32505389201E+02 0.35216574158E+02 0.38018042589E+02
 0.40782662864E+02 0.43363196026E+02 0.45600895104E+02 0.47339484781E+02 0.48444371332E+02
 0.48823588703E+02 0.48444371332E+02 0.47339484781E+02 0.45600895104E+02 0.43363196026E+02
 0.40782662864E+02 0.38018042589E+02 0.35216574158E+02 0.32505389201E+02 0.29986548818E+02
 0.27734197339E+02 0.25793717139E+02 0.24183908069E+02 0.22903172017E+02 0.21939341354E+02
 0.21280765618E+02 0.20924773066E+02 0.20879898478E+02 0.21160639500E+02 0.21776884360E+02
 0.22723980628E+02 0.23988942966E+02 0.25538851325E+02 0.27310771911E+02 0.29215564450E+02
 0.31142579999E+02 0.32965999508E+02 0.34555143978E+02 0.35788833457E+02 0.36570223424E+02
 0.37785429199E+02 0.37506486556E+02 0.36693361384E+02 0.35414586662E+02 0.33775347753E+02
 0.31903673163E+02 0.29933421559E+02 0.27988534228E+02 0.26172152320E+02 0.24561086252E+02
 0.23204938258E+02 0.22137903433E+02 0.21378124468E+02 0.20924773066E+02 0.20765132331E+02
 0.20884407888E+02 0.21274697478E+02 0.21939341354E+02 0.22890688105E+02 0.24142204069E+02
 0.25698096798E+02 0.27544023672E+02 0.29641152452E+02 0.31923979435E+02 0.34301114364E+02
 0.36658282144E+02 0.38864388040E+02 0.40780282409E+02 0.42269628726E+02 0.43216052770E+02
 0.43540820421E+02 0.43216052770E+02 0.42269628726E+02 0.40780282409E+02 0.38864388040E+02
 0.36658282144E+02 0.34301114364E+02 0.31923979435E+02 0.29641152452E+02 0.27544023672E+02
 0.25698096798E+02 0.24142204069E+02 0.22890688105E+02 0.21939341354E+02 0.21274697478E+02
 0.20884407888E+02 0.20765132331E+02 0.20924773066E+02 0.21378124468E+02 0.22137903433E+02
 0.23204938258E+02 0.24561086252E+02 0.26172152320E+02 0.27988534228E+02 0.29933421559E+02
 0.31903673163E+02 0.33775347753E+02 0.35414586662E+02 0.36693361384E+02 0.37506486556E+02
 0.39927939091E+02 0.39633105987E+02 0.38774144914E+02 0.37423975780E+02 0.35692303337E+02
 0.33709930516E+02 0.31611359054E+02 0.29519601100E+02 0.27535923179E+02 0.25739734723E+02
 0.24190878022E+02 0.22925306111E+02 0.21956585530E+02 0.21280765618E+02 0.20884407888E+02
 0.20754117048E+02 0.20884407888E+02 0.21280765618E+02 0.21956585530E+02 0.22925306111E+02
 0.24190878022E+02 0.25739734723E+02 0.27535923179E+02 0.29519601100E+02 0.31611359054E+02
 0.33709930516E+02 0.35692303337E+02 0.37423975780E+02 0.38774144914E+02 0.39633105987E+02
 0.39927939091E+02 0.39633105987E+02 0.38774144914E+02 0.37423975780E+02 0.35692303337E+02
 0.33709930516E+02 0.31611359054E+02 0.29519601100E+02 0.27535923179E+02 0.25739734723E+02
 0.24190878022E+02 0.22925306111E+02 0.21956585530E+02 0.21280765618E+02 0.20884407888E+02
 0.20754117048E+02 0.20884407888E+02 0.21280765618E+02 0.21956585530E+02 0.22925306111E+02
 0.24190878022E+02 0.25739734723E+02 0.27535923179E+02 0.29519601100E+02 0.31611359054E+02
 0.33709930516E+02 0.35692303337E+02 0.37423975780E+02 0.38774144914E+02 0.39633105987E+02
 0.43540820421E+02 0.43216052770E+02 0.42269628726E+02 0.40780282409E+02 0.38864388040E+02
 0.36658282144E+02 0.34301114364E+02 0.31923979435E+02 0.29641152452E+02 0.27544023672E+02
 0.25698096798E+02 0.24142204069E+02 0.22890688105E+02 0.21939341354E+02 0.21274697478E+02
 0.20884407888E+02 0.20765132331E+02 0.20924773066E+02 0.21378124468E+02 0.22137903433E+02
 0.23204938258E+02 0.24561086252E+02 0.26172152320E+02 0.27988534228E+02 0.29933421559E+02
 0.31903673163E+02 0.33775347753E+02 0.35414586662E+02 0.36693361384E+02 0.37506486556E+02
 0.37785429199E+02 0.37506486556E+02 0.36693361384E+02 0.35414586662E+02 0.33775347753E+02
 0.31903673163E+02 0.29933421559E+02 0.27988534228E+02 0.26172152320E+02 0.24561086252E+02
 0.23204938258E+02 0.22137903433E+02 0.21378124468E+02 0.20924773066E+02 0.20765132331E+02
 0.20884407888E+02 0.21274697478E+02 0.21939341354E+02 0.22890688105E+02 0.24142204069E+02
 0.25698096798E+02 0.27544023672E+02 0.29641152452E+02 0.31923979435E+02 0.34301114364E+02
 0.36658282144E+02 0.38864388040E+02 0.40780282409E+02 0.42269628726E+02 0.43216052770E+02
 0.48823588703E+02 0.48444371332E+02 0.47339484781E+02 0.45600895104E+02 0.43363196026E+02
 0.40782662864E+02 0.38018042589E+02 0.35216574158E+02 0.32505389201E+02 0.29986548818E+02
 0.27734197339E+02 0.25793717139E+02 0.24183908069E+02 0.22903172017E+02 0.21939341354E+02
 0.21280765618E+02 0.20924773066E+02 0.20879898478E+02 0.21160639500E+02 0.21776884360E+02
 0.22723980628E+02 0.23988942966E+02 0.25538851325E+02 0.27310771911E+02 0.29215564450E+02
 0.31142579999E+02 0.32965999508E+02 0.34555143978E+02 0.35788833457E+02 0.36570223424E+02
 0.36837689643E+02 0.36570223424E+02 0.35788833457E+02 0.34555143978E+02 0.32965999508E+02
 0.31142579999E+02 0.29215564450E+02 0.27310771911E+02 0.25538851325E+02 0.23988942966E+02
 0.22723980628E+02 0.21776884360E+02 0.21160639500E+02 0.20879898478E+02 0.20924773066E+02
 0.21280765618E+02 0.21939341354E+02 0.22903172017E+02 0.24183908069E+02 0.25793717139E+02
 0.27734197339E+02 0.29986548818E+02 0.32505389201E+02 0.35216574158E+02 0.38018042589E+02
 0.40782662864E+02 0.43363196026E+02 0.45600895104E+02 0.47339484781E+02 0.48444371332E+02
 0.56043740024E+02 0.55575958262E+02 0.54214691743E+02 0.52077703470E+02 0.49336183214E+02
 0.46186444762E+02 0.42823869269E+02 0.39424320331E+02 0.36134020917E+02 0.33065947175E+02
 0.30300088561E+02 0.27885838813E+02 0.25846149667E+02 0.24183908069E+02 0.22890688105E+02
 0.21956585530E+02 0.21378124468E+02 0.21160639500E+02 0.21313080752E+02 0.21839537815E+02
 0.22745981888E+02 0.24014955896E+02 0.25591080415E+02 0.27387603876E+02 0.29296953867E+02
 0.31200132221E+02 0.32974058397E+02 0.34499469719E+02 0.35671021671E+02 0.36407500933E+02
 0.36658618650E+02 0.36407500933E+02 0.35671021671E+02 0.34499469719E+02 0.32974058397E+02
 0.31200132221E+02 0.29296953867E+02 0.27387603876E+02 0.25591080415E+02 0.24014955896E+02
 0.22745981888E+02 0.21839537815E+02 0.21313080752E+02 0.21160639500E+02 0.21378124468E+02
 0.21956585530E+02 0.22890688105E+02 0.24183908069E+02 0.25846149667E+02 0.27885838813E+02
 0.30300088561E+02 0.33065947175E+02 0.36134020917E+02 0.39424320331E+02 0.42823869269E+02
 0.46186444762E+02 0.49336183214E+02 0.52077703470E+02 0.54214691743E+02 0.55575958262E+02
 0.65592756278E+02 0.64993082771E+02 0.63249650969E+02 0.60518839000E+02 0.57029674285E+02
 0.53045817811E+02 0.48827461605E+02 0.44601593668E+02 0.40545439948E+02 0.36783404945E+02
 0.33393988624E+02 0.30421229761E+02 0.27885838813E+02 0.25793717139E+02 0.24142204069E+02
 0.22925306111E+02 0.22137903433E+02 0.21776884360E+02 0.21839537815E+02 0.22338379772E+02
 0.23271638925E+02 0.24594698798E+02 0.26221001640E+02 0.28035617670E+02 0.29913647062E+02
 0.31734595311E+02 0.33389328302E+02 0.34782687185E+02 0.35836192188E+02 0.36491720387E+02
 0.36714115311E+02 0.36491720387E+02 0.35836192188E+02 0.34782687185E+02 0.33389328302E+02
 0.31734595311E+02 0.29913647062E+02 0.28035617670E+02 0.26221001640E+02 0.24594698798E+02
 0.23271638925E+02 0.22338379772E+02 0.21839537815E+02 0.21776884360E+02 0.22137903433E+02
 0.22925306111E+02 0.24142204069E+02 0.25793717139E+02 0.27885838813E+02 0.30421229761E+02
 0.33393988624E+02 0.36783404945E+02 0.40545439948E+02 0.44601593668E+02 0.48827461605E+02
 0.53045817811E+02 0.57029674285E+02 0.60518839000E+02 0.63249650969E+02 0.64993082771E+02
 0.77764378234E+02 0.76990473726E+02 0.74738693866E+02 0.71209020512E+02 0.66702473947E+02
 0.61575771864E+02 0.56187504766E+02 0.50848526714E+02 0.45789727918E+02 0.41154569217E+02
 0.37014117140E+02 0.33393988624E+02 0.30300088561E+02 0.27734197339E+02 0.25698096798E+02
 0.24190878022E+02 0.23204938258E+02 0.22723980628E+02 0.22745981888E+02 0.23271638925E+02
 0.24263026369E+02 0.25635599264E+02 0.27266252096E+02 0.29015032285E+02 0.30750356416E+02
 0.32365582155E+02 0.33781844350E+02 0.34941724272E+02 0.35802197810E+02 0.36331671192E+02
 0.36510406085E+02 0.36331671192E+02 0.35802197810E+02 0.34941724272E+02 0.33781844350E+02
 0.32365582155E+02 0.30750356416E+02 0.29015032285E+02 0.27266252096E+02 0.25635599264E+02
 0.24263026369E+02 0.23271638925E+02 0.22745981888E+02 0.22723980628E+02 0.23204938258E+02
 0.24190878022E+02 0.25698096798E+02 0.27734197339E+02 0.30300088561E+02 0.33393988624E+02
 0.37014117140E+02 0.41154569217E+02 0.45789727918E+02 0.50848526714E+02 0.56187504766E+02
 0.61575771864E+02 0.66702473947E+02 0.71209020512E+02 0.74738693866E+02 0.76990473726E+02
 0.92419223782E+02 0.91452293319E+02 0.88630287588E+02 0.84180129116E+02 0.78457290486E+02
 0.71916903270E+02 0.65044516329E+02 0.58275881331E+02 0.51933709002E+02 0.46203834178E+02
 0.41154569217E+02 0.36783404945E+02 0.33065947175E+02 0.29986548818E+02 0.27544023672E+02
 0.25739734723E+02 0.24561086252E+02 0.23988942966E+02 0.24014955896E+02 0.24594698798E+02
 0.25635599264E+02 0.27001811398E+02 0.28533860431E+02 0.30078761815E+02 0.31517968542E+02
 0.32779880983E+02 0.33832784428E+02 0.34666103214E+02 0.35273194676E+02 0.35644338531E+02
 0.35769488547E+02 0.35644338531E+02 0.35273194676E+02 0.34666103214E+02 0.33832784428E+02
 0.32779880983E+02 0.31517968542E+02 0.30078761815E+02 0.28533860431E+02 0.27001811398E+02
 0.25635599264E+02 0.24594698798E+02 0.24014955896E+02 0.23988942966E+02 0.24561086252E+02
 0.25739734723E+02 0.27544023672E+02 0.29986548818E+02 0.33065947175E+02 0.36783404945E+02
 0.41154569217E+02 0.46203834178E+02 0.51933709002E+02 0.58275881331E+02 0.65044516329E+02
 0.71916903270E+02 0.78457290486E+02 0.84180129116E+02 0.88630287588E+02 0.91452293319E+02
 0.10885499679E+03 0.10770386606E+03 0.10432621805E+03 0.98956353961E+02 0.91988873455E+02
 0.83939239017E+02 0.75382123431E+02 0.66913291316E+02 0.59005203139E+02 0.51933709002E+02
 0.45789727918E+02 0.40545439948E+02 0.36134020917E+02 0.32505389201E+02 0.29641152452E+02
 0.27535923179E+02 0.26172152320E+02 0.25538851325E+02 0.25591080415E+02 0.26221001640E+02
 0.27266252096E+02 0.28533860431E+02 0.29835964870E+02 0.31026800456E+02 0.32026265515E+02
 0.32819436002E+02 0.33433085832E+02 0.33902561712E+02 0.34246813675E+02 0.34462760159E+02
 0.34537061324E+02 0.34462760159E+02 0.34246813675E+02 0.33902561712E+02 0.33433085832E+02
 0.32819436002E+02 0.32026265515E+02 0.31026800456E+02 0.29835964870E+02 0.28533860431E+02
 0.27266252096E+02 0.26221001640E+02 0.25591080415E+02 0.25538851325E+02 0.26172152320E+02
 0.27535923179E+02 0.29641152452E+02 0.32505389201E+02 0.36134020917E+02 0.40545439948E+02
 0.45789727918E+02 0.51933709002E+02 0.59005203139E+02 0.66913291316E+02 0.75382123431E+02
 0.83939239017E+02 0.91988873455E+02 0.98956353961E+02 0.10432621805E+03 0.10770386606E+03
 0.12561613819E+03 0.12437507130E+03 0.12067535192E+03 0.11464018063E+03 0.10659448157E+03
 0.97101628475E+02 0.86870456541E+02 0.76593023975E+02 0.66913291316E+02 0.58275881331E+02
 0.50848526714E+02 0.44601593668E+02 0.39424320331E+02 0.35216574158E+02 0.31923979435E+02
 0.29519601100E+02 0.27988534228E+02 0.27310771911E+02 0.27387603876E+02 0.28035617670E+02
 0.29015032285E+02 0.30078761815E+02 0.31026800456E+02 0.31746269167E+02 0.32221444111E+02
 0.32510425422E+02 0.32699596116E+02 0.32856519222E+02 0.33002327797E+02 0.33115012302E+02
 0.33158243582E+02 0.33115012302E+02 0.33002327797E+02 0.32856519222E+02 0.32699596116E+02
 0.32510425422E+02 0.32221444111E+02 0.31746269167E+02 0.31026800456E+02 0.30078761815E+02
 0.29015032285E+02 0.28035617670E+02 0.27387603876E+02 0.27310771911E+02 0.27988534228E+02
 0.29519601100E+02 0.31923979435E+02 0.35216574158E+02 0.39424320331E+02 0.44601593668E+02
 0.50848526714E+02 0.58275881331E+02 0.66913291316E+02 0.76593023975E+02 0.86870456541E+02
 0.97101628475E+02 0.10659448157E+03 0.11464018063E+03 0.12067535192E+03 0.12437507130E+03
 0.14001120201E+03 0.13891234132E+03 0.13549884878E+03 0.12956325864E+03 0.12111675592E+03
 0.11060782799E+03 0.98874869874E+02 0.86870456541E+02 0.75382123431E+02 0.65044516329E+02
 0.56187504766E+02 0.48827461605E+02 0.42823869269E+02 0.38018042589E+02 0.34301114364E+02
 0.31611359054E+02 0.29933421559E+02 0.29215564450E+02 0.29296953867E+02 0.29913647062E+02
 0.30750356416E+02 0.31517968542E+02 0.32026265515E+02 0.32221444111E+02 0.32173308843E+02
 0.32020462847E+02 0.31899072407E+02 0.31884335861E+02 0.31966941145E+02 0.32073580536E+02
 0.32121082779E+02 0.32073580536E+02 0.31966941145E+02 0.31884335861E+02 0.31899072407E+02
 0.32020462847E+02 0.32173308843E+02 0.32221444111E+02 0.32026265515E+02 0.31517968542E+02
 0.30750356416E+02 0.29913647062E+02 0.29296953867E+02 0.29215564450E+02 0.29933421559E+02
 0.31611359054E+02 0.34301114364E+02 0.38018042589E+02 0.42823869269E+02 0.48827461605E+02
 0.56187504766E+02 0.65044516329E+02 0.75382123431E+02 0.86870456541E+02 0.98874869874E+02
 0.11060782799E+03 0.12111675592E+03 0.12956325864E+03 0.13549884878E+03 0.13891234132E+03
 0.14874018609E+03 0.14814912853E+03 0.14600067190E+03 0.14145637518E+03 0.13386259958E+03
 0.12328987078E+03 0.11060782799E+03 0.97101628475E+02 0.83939239017E+02 0.71916903270E+02
 0.61575771864E+02 0.53045817811E+02 0.46186444762E+02 0.40782662864E+02 0.36658282144E+02
 0.33709930516E+02 0.31903673163E+02 0.31142579999E+02 0.31200132221E+02 0.31734595311E+02
 0.32365582155E+02 0.32779880983E+02 0.32819436002E+02 0.32510425422E+02 0.32020462847E+02
 0.31566776375E+02 0.31318062740E+02 0.31328047901E+02 0.31522414314E+02 0.31743867556E+02
 0.31838807281E+02 0.31743867556E+02 0.31522414314E+02 0.31328047901E+02 0.31318062740E+02
 0.31566776375E+02 0.32020462847E+02 0.32510425422E+02 0.32819436002E+02 0.32779880983E+02
 0.32365582155E+02 0.31734595311E+02 0.31200132221E+02 0.31142579999E+02 0.31903673163E+02
 0.33709930516E+02 0.36658282144E+02 0.40782662864E+02 0.46186444762E+02 0.53045817811E+02
 0.61575771864E+02 0.71916903270E+02 0.83939239017E+02 0.97101628475E+02 0.11060782799E+03
 0.12328987078E+03 0.13386259958E+03 0.14145637518E+03 0.14600067190E+03 0.14814912853E+03
 0.14942843912E+03 0.14975836488E+03 0.14999790796E+03 0.14837468843E+03 0.14319972353E+03
 0.13386259958E+03 0.12111675592E+03 0.10659448157E+03 0.91988873455E+02 0.78457290486E+02
 0.66702473947E+02 0.57029674285E+02 0.49336183214E+02 0.43363196026E+02 0.38864388040E+02
 0.35692303337E+02 0.33775347753E+02 0.32965999508E+02 0.32974058397E+02 0.33389328302E+02
 0.33781844350E+02 0.33832784428E+02 0.33433085832E+02 0.32699596116E+02 0.31899072407E+02
 0.31318062740E+02 0.31138913601E+02 0.31368576478E+02 0.31840283888E+02 0.32287810932E+02
 0.32469424621E+02 0.32287810932E+02 0.31840283888E+02 0.31368576478E+02 0.31138913601E+02
 0.31318062740E+02 0.31899072407E+02 0.32699596116E+02 0.33433085832E+02 0.33832784428E+02
 0.33781844350E+02 0.33389328302E+02 0.32974058397E+02 0.32965999508E+02 0.33775347753E+02
 0.35692303337E+02 0.38864388040E+02 0.43363196026E+02 0.49336183214E+02 0.57029674285E+02
 0.66702473947E+02 0.78457290486E+02 0.91988873455E+02 0.10659448157E+03 0.12111675592E+03
 0.13386259958E+03 0.14319972353E+03 0.14837468843E+03 0.14999790796E+03 0.14975836488E+03