   8   8   0   0
  0.1120183E+02  0.4475000E-09  0.4475000E-09  0.4475000E-09  0.5000000E-15
  1.000000000000000E-004
  CAR 
 unknown system                          
     19.04062205     -7.29968342  301      8.34804140      1.00000000
     -7.300  0.0000E+00  0.0000E+00
     -7.212  0.0000E+00  0.0000E+00
     -7.124  0.0000E+00  0.0000E+00
     -7.036  0.0000E+00  0.0000E+00
     -6.948  0.0000E+00  0.0000E+00
     -6.861  0.0000E+00  0.0000E+00
     -6.773  0.0000E+00  0.0000E+00
     -6.685  0.0000E+00  0.0000E+00
     -6.597  0.0000E+00  0.0000E+00
     -6.509  0.0000E+00  0.0000E+00
     -6.422  0.0000E+00  0.0000E+00
     -6.334  0.0000E+00  0.0000E+00
     -6.246 -0.3241E-90 -0.2845E-91
     -6.158 -0.1503E-14 -0.1320E-15
     -6.070  0.3559E-01  0.3125E-02
     -5.983 -0.2528E-92  0.3125E-02
     -5.895 -0.4504E-15  0.3125E-02
     -5.807  0.1068E+00  0.1250E-01
     -5.719 -0.4717E-90  0.1250E-01
     -5.631 -0.3415E-14  0.1250E-01
     -5.544  0.1068E+00  0.2188E-01
     -5.456 -0.1793E-45  0.2187E-01
     -5.368 -0.3289E-02  0.2159E-01
     -5.280  0.1457E+00  0.3438E-01
     -5.192 -0.2583E-38  0.3438E-01
     -5.105  0.1560E-01  0.3574E-01
     -5.017  0.0000E+00  0.5312E-01
     -4.929 -0.8430E-29  0.5312E-01
     -4.841  0.1019E+00  0.6207E-01
     -4.753  0.1105E+00  0.7220E-01
     -4.666 -0.1576E-05  0.7187E-01
     -4.578  0.1068E+00  0.8125E-01
     -4.490  0.2137E+00  0.1000E+00
     -4.402 -0.3769E-02  0.9967E-01
     -4.314  0.1105E+00  0.1094E+00
     -4.227  0.2136E+00  0.1281E+00
     -4.139 -0.5752E-24  0.1281E+00
     -4.051  0.2301E+00  0.1483E+00
     -3.963  0.4268E+00  0.1937E+00
     -3.875  0.3581E-01  0.1969E+00
     -3.788  0.5925E+00  0.2489E+00
     -3.700 -0.2168E-09  0.2812E+00
     -3.612  0.1059E+00  0.2905E+00
     -3.524  0.6920E+00  0.3513E+00
     -3.436  0.2180E+00  0.3754E+00
     -3.349  0.6169E+00  0.4292E+00
     -3.261  0.3186E+00  0.4686E+00
     -3.173  0.4375E+00  0.5065E+00
     -3.085  0.6420E+00  0.5626E+00
     -2.997  0.3245E+00  0.5910E+00
     -2.910  0.4270E+00  0.6281E+00
     -2.822  0.5755E+00  0.6786E+00
     -2.734  0.2209E+00  0.7125E+00
     -2.646  0.2137E+00  0.7312E+00
     -2.558  0.1068E+00  0.7406E+00
     -2.471  0.4403E+00  0.7793E+00
     -2.383 -0.9699E-03  0.7780E+00
     -2.295  0.3489E-01  0.7811E+00
     -2.207  0.1084E+00  0.7906E+00
     -2.119 -0.5349E-04  0.7906E+00
     -2.032  0.1068E+00  0.8000E+00
     -1.944  0.0000E+00  0.8000E+00
     -1.856  0.0000E+00  0.8000E+00
     -1.768  0.0000E+00  0.8000E+00
     -1.680  0.0000E+00  0.8000E+00
     -1.593  0.0000E+00  0.8000E+00
     -1.505  0.0000E+00  0.8000E+00
     -1.417  0.0000E+00  0.8000E+00
     -1.329  0.0000E+00  0.8000E+00
     -1.241  0.0000E+00  0.8000E+00
     -1.154  0.0000E+00  0.8000E+00
     -1.066  0.0000E+00  0.8000E+00
     -0.978  0.0000E+00  0.8000E+00
     -0.890  0.0000E+00  0.8000E+00
     -0.802  0.0000E+00  0.8000E+00
     -0.715  0.0000E+00  0.8000E+00
     -0.627  0.0000E+00  0.8000E+00
     -0.539  0.0000E+00  0.8000E+00
     -0.451  0.0000E+00  0.8000E+00
     -0.363  0.0000E+00  0.8000E+00
     -0.276  0.0000E+00  0.8000E+00
     -0.188  0.0000E+00  0.8000E+00
     -0.100 -0.2578E-78  0.8000E+00
     -0.012 -0.6053E-10  0.8000E+00
      0.076  0.1068E+00  0.8094E+00
      0.163 -0.1404E-99  0.8094E+00
      0.251 -0.2833E-18  0.8094E+00
      0.339  0.1462E+00  0.8222E+00
      0.427 -0.4893E-35  0.8219E+00
      0.515  0.7096E-01  0.8281E+00
      0.602 -0.2916E-19  0.8406E+00
      0.690  0.2146E+00  0.8595E+00
      0.778 -0.2106E-23  0.8594E+00
      0.866  0.1097E+00  0.8690E+00
      0.954  0.1068E+00  0.8781E+00
      1.041  0.3265E-01  0.8810E+00
      1.129  0.3212E+00  0.9157E+00
      1.217  0.2825E+00  0.9404E+00
      1.305  0.1104E+00  0.9625E+00
      1.393 -0.7310E-09  0.9625E+00
      1.480  0.3203E+00  0.9906E+00
      1.568  0.6076E+00  0.1044E+01
      1.656  0.4101E+00  0.1083E+01
      1.744  0.1714E-01  0.1086E+01
      1.832  0.1087E+00  0.1113E+01
      1.919  0.2136E+00  0.1131E+01
      2.007  0.2097E+00  0.1150E+01
      2.095  0.4569E+00  0.1189E+01
      2.183  0.2145E+00  0.1216E+01
      2.271  0.6837E+00  0.1276E+01
      2.358  0.3709E-01  0.1278E+01
      2.446  0.3203E+00  0.1322E+01
      2.534  0.1488E+00  0.1335E+01
      2.622  0.1520E-01  0.1342E+01
      2.710  0.3214E+00  0.1388E+01
      2.797  0.2137E+00  0.1406E+01
      2.885  0.1068E+00  0.1416E+01
      2.973  0.3147E+00  0.1443E+01
      3.061  0.2192E+00  0.1462E+01
      3.149  0.1082E+00  0.1472E+01
      3.236  0.4040E+00  0.1507E+01
      3.324  0.6387E+00  0.1581E+01
      3.412  0.4287E+00  0.1619E+01
      3.500  0.1598E+01  0.1759E+01
      3.588  0.2044E+01  0.1957E+01
      3.675  0.1048E+01  0.2094E+01
      3.763  0.1342E+01  0.2215E+01
      3.851  0.1473E+01  0.2347E+01
      3.939  0.8181E+00  0.2422E+01
      4.027  0.9638E+00  0.2506E+01
      4.114  0.5310E+00  0.2553E+01
      4.202  0.9749E+00  0.2638E+01
      4.290  0.5362E+00  0.2685E+01
      4.378  0.6794E+00  0.2744E+01
      4.466  0.5695E+00  0.2800E+01
      4.553  0.3210E+00  0.2828E+01
      4.641  0.3204E+00  0.2856E+01
      4.729 -0.1079E-13  0.2856E+01
      4.817  0.3255E+00  0.2885E+01
      4.905 -0.2424E-02  0.2884E+01
      4.992  0.4307E+00  0.2922E+01
      5.080  0.2981E+00  0.2948E+01
      5.168  0.3241E+00  0.2978E+01
      5.256  0.6183E+00  0.3032E+01
      5.344  0.1073E+00  0.3041E+01
      5.431  0.2082E+00  0.3059E+01
      5.519  0.3272E+00  0.3088E+01
      5.607  0.1068E+00  0.3097E+01
      5.695  0.2136E+00  0.3116E+01
      5.783 -0.3035E-43  0.3116E+01
      5.870 -0.3732E-02  0.3115E+01
      5.958  0.2173E+00  0.3134E+01
      6.046  0.1076E+00  0.3144E+01
      6.134  0.1067E+00  0.3153E+01
      6.222  0.1069E+00  0.3163E+01
      6.309  0.8170E-02  0.3163E+01
      6.397  0.2169E+00  0.3191E+01
      6.485  0.2163E+00  0.3210E+01
      6.573  0.1074E+00  0.3219E+01
      6.661  0.1436E+00  0.3231E+01
      6.748  0.1009E+00  0.3240E+01
      6.836  0.1075E+00  0.3250E+01
      6.924  0.2395E-01  0.3252E+01
      7.012 -0.7534E-86  0.3256E+01
      7.100 -0.2027E-12  0.3256E+01
      7.187  0.4403E+00  0.3295E+01
      7.275  0.3210E+00  0.3331E+01
      7.363  0.5377E+00  0.3378E+01
      7.451  0.1068E+00  0.3388E+01
      7.539  0.1070E+00  0.3397E+01
      7.626  0.2104E+00  0.3415E+01
      7.714  0.1811E+00  0.3431E+01
      7.802  0.1068E+00  0.3441E+01
      7.890  0.0000E+00  0.3441E+01
      7.978 -0.1635E-52  0.3441E+01
      8.065 -0.4336E-03  0.3441E+01
      8.153  0.1830E+00  0.3457E+01
      8.241  0.5205E+00  0.3514E+01
      8.329  0.7188E+00  0.3597E+01
      8.417  0.2495E+00  0.3619E+01
      8.504  0.3222E+00  0.3647E+01
      8.592  0.1068E+00  0.3656E+01
      8.680  0.1061E+00  0.3666E+01
      8.768  0.5717E-01  0.3680E+01
      8.856  0.2186E+00  0.3703E+01
      8.944  0.8657E-01  0.3711E+01
      9.031  0.5061E-01  0.3717E+01
      9.119  0.1998E+00  0.3739E+01
      9.207  0.2535E+00  0.3763E+01
      9.295  0.1095E+00  0.3772E+01
      9.383  0.9699E+00  0.3857E+01
      9.470  0.9226E+00  0.3937E+01
      9.558  0.2065E-01  0.3942E+01
      9.646  0.2871E+00  0.3975E+01
      9.734 -0.2744E-02  0.3975E+01
      9.822  0.2163E+00  0.3994E+01
      9.909  0.5408E+00  0.4041E+01
      9.997  0.4975E+00  0.4084E+01
     10.085  0.1357E+00  0.4096E+01
     10.173  0.7514E+00  0.4162E+01
     10.261  0.5508E+00  0.4211E+01
     10.348 -0.3769E-02  0.4218E+01
     10.436  0.3239E+00  0.4247E+01
     10.524  0.4984E+00  0.4291E+01
     10.612  0.9920E+00  0.4380E+01
     10.700  0.2948E+00  0.4413E+01
     10.787  0.4334E+00  0.4454E+01
     10.875  0.2685E+00  0.4486E+01
     10.963  0.4669E+00  0.4532E+01
     11.051  0.9995E+00  0.4650E+01
     11.139  0.6514E+00  0.4713E+01
     11.226  0.2145E+00  0.4741E+01
     11.314  0.4239E+00  0.4778E+01
     11.402  0.3172E+00  0.4806E+01
     11.490  0.8562E+00  0.4881E+01
     11.578  0.1207E+01  0.4987E+01
     11.665  0.7476E+00  0.5053E+01
     11.753  0.4919E+00  0.5096E+01
     11.841  0.9187E+00  0.5189E+01
     11.929  0.5318E+00  0.5240E+01
     12.017  0.5483E+00  0.5297E+01
     12.104  0.1015E+01  0.5386E+01
     12.192  0.5581E+00  0.5439E+01
     12.280  0.5316E+00  0.5494E+01
     12.368  0.6887E+00  0.5554E+01
     12.456  0.9677E+00  0.5663E+01
     12.543  0.1127E+01  0.5780E+01
     12.631  0.3203E+00  0.5822E+01
     12.719  0.2392E+00  0.5843E+01
     12.807 -0.3271E-42  0.5847E+01
     12.895 -0.1075E-01  0.5846E+01
     12.982  0.5482E+00  0.5894E+01
     13.070  0.2106E+00  0.5912E+01
     13.158  0.4303E+00  0.5950E+01
     13.246 -0.3718E-02  0.5950E+01
     13.334  0.3240E+00  0.5978E+01
     13.421  0.2141E+00  0.5997E+01
     13.509  0.2136E+00  0.6016E+01
     13.597  0.4271E+00  0.6053E+01
     13.685  0.1275E-01  0.6054E+01
     13.773  0.3207E+00  0.6091E+01
     13.860  0.1066E+00  0.6100E+01
     13.948  0.2137E+00  0.6119E+01
     14.036 -0.1807E-04  0.6119E+01
     14.124  0.4271E+00  0.6156E+01
     14.212 -0.7432E-04  0.6156E+01
     14.299  0.5508E+00  0.6205E+01
     14.387  0.4223E+00  0.6250E+01
     14.475  0.2181E+00  0.6269E+01
     14.563  0.2101E+00  0.6287E+01
     14.651  0.1461E+00  0.6300E+01
     14.738  0.2189E+00  0.6319E+01
     14.826  0.2136E+00  0.6338E+01
     14.914  0.9646E-02  0.6338E+01
     15.002  0.2136E+00  0.6375E+01
     15.090  0.3077E+00  0.6402E+01
     15.177  0.5501E+00  0.6451E+01
     15.265  0.2701E+00  0.6477E+01
     15.353  0.3182E+00  0.6509E+01
     15.441  0.1052E+00  0.6519E+01
     15.529  0.2114E+00  0.6537E+01
     15.616  0.6093E+00  0.6591E+01
     15.704  0.3806E-01  0.6594E+01
     15.792  0.2491E+00  0.6622E+01
     15.880  0.1099E+00  0.6632E+01
     15.968  0.1416E+00  0.6644E+01
     16.055  0.2122E+00  0.6662E+01
     16.143  0.1079E+00  0.6681E+01
     16.231  0.4931E+00  0.6725E+01
     16.319 -0.8645E-17  0.6737E+01
     16.407  0.1068E+00  0.6747E+01
     16.494  0.6877E-01  0.6753E+01
     16.582 -0.9325E-28  0.6766E+01
     16.670  0.1066E+00  0.6775E+01
     16.758  0.0000E+00  0.6775E+01
     16.846 -0.2537E-86  0.6775E+01
     16.933 -0.8754E-13  0.6775E+01
     17.021  0.1068E+00  0.6784E+01
     17.109  0.1102E+00  0.6794E+01
     17.197  0.0000E+00  0.6794E+01
     17.285  0.0000E+00  0.6794E+01
     17.372  0.0000E+00  0.6794E+01
     17.460  0.0000E+00  0.6794E+01
     17.548  0.0000E+00  0.6794E+01
     17.636  0.0000E+00  0.6794E+01
     17.724 -0.9281E-60  0.6794E+01
     17.811 -0.7302E-05  0.6794E+01
     17.899  0.7119E-01  0.6800E+01
     17.987  0.0000E+00  0.6800E+01
     18.075  0.0000E+00  0.6800E+01
     18.163  0.0000E+00  0.6800E+01
     18.250  0.0000E+00  0.6800E+01
     18.338  0.0000E+00  0.6800E+01
     18.426  0.0000E+00  0.6800E+01
     18.514  0.0000E+00  0.6800E+01
     18.602  0.0000E+00  0.6800E+01
     18.689  0.0000E+00  0.6800E+01
     18.777  0.0000E+00  0.6800E+01
     18.865  0.0000E+00  0.6800E+01
     18.953  0.0000E+00  0.6800E+01
     19.041  0.0000E+00  0.6800E+01
