    8    8   10    1
  0.1120183E+02  0.4475000E-09  0.4475000E-09  0.4475000E-09  0.5000000E-15
  1.000000000000000E-004
  CAR 
 unknown system                          
   36   20   34
 
  0.6250000E-01  0.6250000E-01  0.6250000E-01  0.1562500E-01
   1       -6.102397
   2       -4.045246
   3       -4.045246
   4       -4.045246
   5        3.739868
   6        3.739868
   7        3.739868
   8        3.976436
   9        3.976436
  10        3.976436
  11        6.473860
  12        6.473860
  13        6.473860
  14        6.585195
  15        6.741883
  16        6.741883
  17        6.741883
  18        6.926055
  19        6.926055
  20        7.666228
  21        7.666228
  22        8.393697
  23        9.955529
  24        9.955529
  25       11.346356
  26       11.346356
  27       11.346356
  28       12.428042
  29       12.428042
  30       12.428042
  31       12.478673
  32       12.478673
  33       12.478673
  34       15.152908
 
  0.1875000E+00  0.6250000E-01  0.6250000E-01  0.4687500E-01
   1       -5.836932
   2       -3.994962
   3       -3.848240
   4       -3.848240
   5        3.157050
   6        3.603197
   7        3.603197
   8        3.783678
   9        3.783678
  10        4.130588
  11        5.447038
  12        5.447038
  13        5.557965
  14        6.142336
  15        6.315552
  16        6.375056
  17        6.629179
  18        7.194076
  19        7.302995
  20        7.302995
  21        8.486699
  22        9.031613
  23       10.186028
  24       11.141014
  25       11.596609
  26       12.100944
  27       12.100944
  28       12.305844
  29       12.305844
  30       12.487359
  31       12.487360
  32       12.518951
  33       12.533839
  34       15.345350
 
  0.3125000E+00  0.6250000E-01  0.6250000E-01  0.4687500E-01
   1       -5.353806
   2       -4.009916
   3       -3.531821
   4       -3.531821
   5        2.534840
   6        3.301766
   7        3.301766
   8        3.626518
   9        3.626518
  10        4.069428
  11        4.348997
  12        4.348997
  13        4.417000
  14        5.638510
  15        6.025901
  16        6.093711
  17        6.465629
  18        6.815786
  19        8.289327
  20        8.289327
  21        9.254832
  22       10.023947
  23       10.696793
  24       10.794260
  25       11.545407
  26       11.545407
  27       12.418917
  28       12.462902
  29       12.462902
  30       12.506674
  31       12.905073
  32       13.087997
  33       13.087997
  34       15.186150
 
  0.4375000E+00  0.6250000E-01  0.6250000E-01  0.4687500E-01
   1       -4.765090
   2       -4.258767
   3       -3.270967
   4       -3.270967
   5        2.393030
   6        2.936556
   7        2.936556
   8        2.938627
   9        3.535804
  10        3.535804
  11        3.835266
  12        3.835266
  13        4.798736
  14        5.215281
  15        5.882166
  16        5.921371
  17        6.382281
  18        6.494445
  19        9.442956
  20        9.442956
  21        9.861372
  22       10.360258
  23       10.593282
  24       10.593282
  25       11.067120
  26       11.438448
  27       11.934033
  28       12.131258
  29       12.464874
  30       12.464874
  31       13.549585
  32       13.549585
  33       13.819680
  34       14.575649
 
  0.1875000E+00  0.1875000E+00  0.6250000E-01  0.4687500E-01
   1       -5.575339
   2       -3.787316
   3       -3.787316
   4       -3.654894
   5        2.988307
   6        2.988307
   7        3.173267
   8        3.684198
   9        3.888931
  10        3.888931
  11        5.039479
  12        5.277411
  13        5.395056
  14        5.395056
  15        5.501269
  16        5.664491
  17        7.231089
  18        7.231089
  19        7.266507
  20        7.641150
  21        8.552619
  22        9.198164
  23       11.052781
  24       11.837948
  25       11.837948
  26       11.942729
  27       12.396402
  28       12.396402
  29       12.426593
  30       12.584528
  31       12.593848
  32       12.593848
  33       13.380193
  34       15.136389
 
  0.3125000E+00  0.1875000E+00  0.6250000E-01  0.9375000E-01
   1       -5.098500
   2       -3.784566
   3       -3.446076
   4       -3.346934
   5        2.362681
   6        2.627916
   7        2.643187
   8        3.587615
   9        3.660327
  10        3.847641
  11        4.072930
  12        4.431173
  13        4.519480
  14        4.971374
  15        5.241456
  16        5.244530
  17        7.152645
  18        7.595012
  19        8.155038
  20        8.242191
  21        9.302604
  22        9.935670
  23       11.417201
  24       11.433580
  25       11.534498
  26       11.570145
  27       12.336064
  28       12.374966
  29       12.400103
  30       12.678758
  31       13.110912
  32       13.886579
  33       14.353942
  34       14.920833
 
  0.4375000E+00  0.1875000E+00  0.6250000E-01  0.9375000E-01
   1       -4.516452
   2       -4.018378
   3       -3.145054
   4       -3.106264
   5        2.226718
   6        2.228590
   7        2.257734
   8        2.770993
   9        3.525560
  10        3.540881
  11        3.970224
  12        4.018451
  13        4.317946
  14        4.613431
  15        5.074406
  16        5.097531
  17        7.174213
  18        7.345950
  19        9.369387
  20        9.402692
  21       10.131259
  22       10.535735
  23       10.594305
  24       10.847861
  25       10.937651
  26       11.830695
  27       12.049147
  28       12.365268
  29       12.384297
  30       12.510243
  31       13.735146
  32       14.239093
  33       14.722840
  34       15.261903
 
  0.3125000E+00  0.3125000E+00  0.6250000E-01  0.4687500E-01
   1       -4.632542
   2       -3.398611
   3       -3.398611
   4       -3.062190
   5        1.960905
   6        2.020071
   7        2.020071
   8        3.270929
   9        3.532701
  10        3.753740
  11        3.753740
  12        4.189924
  13        4.260811
  14        4.319857
  15        4.319857
  16        4.612360
  17        8.207480
  18        8.207480
  19        8.246265
  20        8.767304
  21        9.759533
  22       10.254852
  23       11.134945
  24       11.631094
  25       11.631094
  26       12.073531
  27       12.181450
  28       12.191497
  29       12.191497
  30       13.045241
  31       13.045241
  32       14.497742
  33       15.388065
  34       16.074555
 
  0.4375000E+00  0.3125000E+00  0.6250000E-01  0.9375000E-01
   1       -4.064678
   2       -3.590070
   3       -3.014455
   4       -2.879069
   5        1.552376
   6        1.626913
   7        1.889057
   8        2.397777
   9        3.516968
  10        3.574780
  11        3.837910
  12        3.839228
  13        3.886344
  14        4.005698
  15        4.189009
  16        4.271104
  17        8.252764
  18        8.352408
  19        9.366595
  20        9.867443
  21       10.427730
  22       10.493466
  23       10.979711
  24       11.028180
  25       11.252951
  26       11.755410
  27       12.060191
  28       12.086097
  29       12.546480
  30       12.906792
  31       13.565268
  32       14.066140
  33       16.189609
  34       16.233318
 
  0.4375000E+00  0.4375000E+00  0.6250000E-01  0.4687500E-01
   1       -3.524425
   2       -3.109382
   3       -3.109382
   4       -2.820590
   5        1.230372
   6        1.436963
   7        1.436963
   8        1.814473
   9        3.560720
  10        3.595363
  11        3.595363
  12        3.601026
  13        3.616312
  14        3.726341
  15        3.726341
  16        3.901076
  17        9.112225
  18        9.339784
  19        9.339784
  20       10.126371
  21       10.730169
  22       10.746513
  23       11.272472
  24       11.272472
  25       11.461856
  26       11.621628
  27       11.621628
  28       11.635247
  29       12.959366
  30       13.283247
  31       13.283247
  32       13.689954
  33       16.986500
  34       17.095093
 
  0.1875000E+00  0.1875000E+00  0.1875000E+00  0.1562500E-01
   1       -5.318080
   2       -3.583176
   3       -3.583176
   4       -3.583176
   5        2.661503
   6        2.661503
   7        2.661503
   8        3.707844
   9        3.707844
  10        3.707844
  11        4.440591
  12        5.139881
  13        5.139881
  14        5.139881
  15        5.201356
  16        5.201356
  17        7.332841
  18        7.332841
  19        7.332841
  20        8.281673
  21        8.281673
  22        9.134168
  23       11.900498
  24       11.900498
  25       11.900498
  26       12.350847
  27       12.350847
  28       12.350847
  29       12.720620
  30       12.720620
  31       13.399879
  32       13.399879
  33       13.399879
  34       15.959987
 
  0.3125000E+00  0.1875000E+00  0.1875000E+00  0.4687500E-01
   1       -4.848103
   2       -3.562556
   3       -3.249404
   4       -3.249404
   5        2.098735
   6        2.161117
   7        2.161117
   8        3.500671
   9        3.565631
  10        3.565631
  11        3.791989
  12        4.426305
  13        4.426305
  14        4.532673
  15        4.920736
  16        4.948562
  17        7.390037
  18        8.087438
  19        8.218946
  20        8.218946
  21        9.191317
  22        9.749318
  23       11.514585
  24       11.514585
  25       11.600092
  26       12.238321
  27       12.238321
  28       12.258008
  29       12.968133
  30       13.478149
  31       14.261526
  32       14.403279
  33       14.403280
  34       15.865198
 
  0.4375000E+00  0.1875000E+00  0.1875000E+00  0.4687500E-01
   1       -4.272757
   2       -3.782015
   3       -2.966580
   4       -2.966580
   5        1.749816
   6        1.749816
   7        1.993922
   8        2.526981
   9        3.503500
  10        3.503500
  11        3.929951
  12        3.957329
  13        3.957329
  14        4.151666
  15        4.784129
  16        4.805246
  17        7.515497
  18        7.767502
  19        9.411084
  20        9.411084
  21       10.143182
  22       10.602005
  23       10.602005
  24       10.779515
  25       10.985549
  26       11.740796
  27       12.200062
  28       12.200062
  29       13.258676
  30       13.463411
  31       15.082914
  32       15.083057
  33       15.151079
  34       15.568606
 
  0.3125000E+00  0.3125000E+00  0.1875000E+00  0.4687500E-01
   1       -4.389675
   2       -3.182236
   3       -3.182236
   4       -2.936109
   5        1.561164
   6        1.650012
   7        1.650012
   8        2.852908
   9        3.485715
  10        3.557489
  11        3.557489
  12        4.061907
  13        4.078153
  14        4.260901
  15        4.260901
  16        4.379507
  17        8.295934
  18        8.295934
  19        8.777132
  20        8.844757
  21        9.352079
  22       10.121334
  23       11.328340
  24       11.551867
  25       11.551867
  26       11.984372
  27       12.118557
  28       12.118557
  29       13.750476
  30       14.357049
  31       14.357049
  32       15.467012
  33       15.541659
  34       15.922002
 
  0.4375000E+00  0.3125000E+00  0.1875000E+00  0.9375000E-01
   1       -3.828238
   2       -3.359262
   3       -2.809980
   4       -2.708198
   5        1.154805
   6        1.218960
   7        1.563734
   8        2.057671
   9        3.461143
  10        3.462331
  11        3.594720
  12        3.722371
  13        3.738652
  14        3.780790
  15        4.137821
  16        4.154758
  17        8.441660
  18        8.680139
  19        9.466215
  20        9.895762
  21       10.207784
  22       10.621270
  23       10.969589
  24       10.987318
  25       11.096362
  26       11.764439
  27       11.866566
  28       11.940040
  29       14.091818
  30       14.288979
  31       14.951817
  32       15.303055
  33       16.054569
  34       16.202671
 
  0.4375000E+00  0.4375000E+00  0.1875000E+00  0.4687500E-01
   1       -3.293049
   2       -2.883594
   3       -2.883594
   4       -2.611395
   5        0.850811
   6        1.067788
   7        1.067788
   8        1.452049
   9        3.420985
  10        3.420985
  11        3.472223
  12        3.473729
  13        3.487605
  14        3.670940
  15        3.670940
  16        3.775933
  17        9.561739
  18        9.577246
  19        9.577246
  20       10.227990
  21       10.470735
  22       10.616809
  23       10.965095
  24       10.965095
  25       11.426381
  26       11.501079
  27       11.674065
  28       11.674065
  29       14.512472
  30       14.775955
  31       14.775956
  32       15.081496
  33       16.380110
  34       16.499848
 
  0.3125000E+00  0.3125000E+00  0.3125000E+00  0.1562500E-01
   1       -3.943441
   2       -2.815421
   3       -2.815421
   4       -2.815421
   5        1.109641
   6        1.109641
   7        1.109641
   8        2.219294
   9        3.398801
  10        3.398801
  11        3.398801
  12        3.868634
  13        3.868634
  14        3.887458
  15        3.887458
  16        3.887458
  17        8.939499
  18        8.939499
  19        8.939499
  20        9.621298
  21        9.621298
  22       10.012684
  23       11.458800
  24       11.458800
  25       11.458800
  26       12.062164
  27       12.062164
  28       12.062164
  29       15.594816
  30       15.594861
  31       15.754042
  32       15.755837
  33       15.759806
  34       15.760853
 
  0.4375000E+00  0.3125000E+00  0.3125000E+00  0.4687500E-01
   1       -3.394868
   2       -2.945420
   3       -2.483489
   4       -2.483489
   5        0.668790
   6        0.668790
   7        1.043765
   8        1.509310
   9        3.342004
  10        3.342004
  11        3.360402
  12        3.487142
  13        3.539206
  14        3.539206
  15        3.750344
  16        3.762506
  17        9.113006
  18        9.390581
  19        9.939229
  20        9.939229
  21       10.520986
  22       10.874961
  23       11.011147
  24       11.011147
  25       11.207024
  26       11.787054
  27       11.921038
  28       11.921038
  29       15.575613
  30       15.575614
  31       15.592357
  32       15.705908
  33       15.739351
  34       16.050568
 
  0.4375000E+00  0.4375000E+00  0.3125000E+00  0.4687500E-01
   1       -2.870400
   2       -2.485795
   3       -2.485795
   4       -2.277331
   5        0.327065
   6        0.516635
   7        0.516635
   8        0.895666
   9        3.242968
  10        3.242968
  11        3.295247
  12        3.298789
  13        3.302563
  14        3.421239
  15        3.421239
  16        3.460337
  17       10.097022
  18       10.097022
  19       10.264068
  20       10.462246
  21       10.597689
  22       10.938234
  23       11.093537
  24       11.093537
  25       11.393785
  26       11.726399
  27       11.813878
  28       11.813878
  29       15.154016
  30       15.154016
  31       15.173219
  32       15.458989
  33       16.493941
  34       16.661637
 
  0.4375000E+00  0.4375000E+00  0.4375000E+00  0.1562500E-01
   1       -2.372608
   2       -2.092631
   3       -2.092631
   4       -2.092631
   5        0.034183
   6        0.034183
   7        0.034183
   8        0.314411
   9        3.139464
  10        3.139464
  11        3.139464
  12        3.183831
  13        3.183831
  14        3.188013
  15        3.188013
  16        3.188013
  17       10.773258
  18       10.773258
  19       10.773258
  20       10.911382
  21       10.911382
  22       11.171990
  23       11.171990
  24       11.171990
  25       11.532200
  26       12.004402
  27       12.004402
  28       12.004402
  29       14.304943
  30       14.304943
  31       14.304943
  32       14.596748
  33       17.840263
  34       17.843335
