<?xml version="1.0" encoding="ISO-8859-1"?>
<modeling>
 <generator>
  <i name="program" type="string">vasp </i>
  <i name="version" type="string">5.2.12  </i>
  <i name="subversion" type="string">11Nov11 complex                                                      parallel </i>
  <i name="platform" type="string">LinuxIFC </i>
  <i name="date" type="string">2012 10 24 </i>
  <i name="time" type="string">19:45:42 </i>
 </generator>
 <incar>
  <i type="string" name="PREC">normal</i>
  <i type="int" name="IBRION">     2</i>
  <i type="int" name="NSW">    10</i>
  <i name="ENCUT">    700.00000000</i>
  <i type="int" name="NBANDS">    34</i>
  <i name="SIGMA">      0.01000000</i>
 </incar>
 <kpoints>
  <generation param="Monkhorst-Pack">
   <v type="int" name="divisions">       8        8        8 </v>
   <v name="usershift">      0.00000000       0.00000000       0.00000000 </v>
   <v name="genvec1">      0.12500000       0.00000000       0.00000000 </v>
   <v name="genvec2">      0.00000000       0.12500000       0.00000000 </v>
   <v name="genvec3">      0.00000000       0.00000000       0.12500000 </v>
   <v name="shift">      0.50000000       0.50000000       0.50000000 </v>
  </generation>
  <varray name="kpointlist" >
   <v>       0.06250000       0.06250000       0.06250000 </v>
   <v>       0.18750000       0.06250000       0.06250000 </v>
   <v>       0.31250000       0.06250000       0.06250000 </v>
   <v>       0.43750000       0.06250000       0.06250000 </v>
   <v>       0.18750000       0.18750000       0.06250000 </v>
   <v>       0.31250000       0.18750000       0.06250000 </v>
   <v>       0.43750000       0.18750000       0.06250000 </v>
   <v>       0.31250000       0.31250000       0.06250000 </v>
   <v>       0.43750000       0.31250000       0.06250000 </v>
   <v>       0.43750000       0.43750000       0.06250000 </v>
   <v>       0.18750000       0.18750000       0.18750000 </v>
   <v>       0.31250000       0.18750000       0.18750000 </v>
   <v>       0.43750000       0.18750000       0.18750000 </v>
   <v>       0.31250000       0.31250000       0.18750000 </v>
   <v>       0.43750000       0.31250000       0.18750000 </v>
   <v>       0.43750000       0.43750000       0.18750000 </v>
   <v>       0.31250000       0.31250000       0.31250000 </v>
   <v>       0.43750000       0.31250000       0.31250000 </v>
   <v>       0.43750000       0.43750000       0.31250000 </v>
   <v>       0.43750000       0.43750000       0.43750000 </v>
  </varray>
  <varray name="weights" >
   <v>       0.01562500 </v>
   <v>       0.04687500 </v>
   <v>       0.04687500 </v>
   <v>       0.04687500 </v>
   <v>       0.04687500 </v>
   <v>       0.09375000 </v>
   <v>       0.09375000 </v>
   <v>       0.04687500 </v>
   <v>       0.09375000 </v>
   <v>       0.04687500 </v>
   <v>       0.01562500 </v>
   <v>       0.04687500 </v>
   <v>       0.04687500 </v>
   <v>       0.04687500 </v>
   <v>       0.09375000 </v>
   <v>       0.04687500 </v>
   <v>       0.01562500 </v>
   <v>       0.04687500 </v>
   <v>       0.04687500 </v>
   <v>       0.01562500 </v>
  </varray>
 </kpoints>
 <parameters>
  <separator name="general" >
   <i type="string" name="SYSTEM">unknown system</i>
   <i type="logical" name="LCOMPAT"> F  </i>
  </separator>
  <separator name="electronic" >
   <i type="string" name="PREC">normal</i>
   <i name="ENMAX">    700.00000000</i>
   <i name="ENAUG">    644.87300000</i>
   <i name="EDIFF">      0.00010000</i>
   <i type="int" name="IALGO">    38</i>
   <i type="int" name="IWAVPR">    11</i>
   <i type="int" name="NBANDS">    34</i>
   <i name="NELECT">     36.00000000</i>
   <i type="int" name="TURBO">     0</i>
   <i type="int" name="IRESTART">     0</i>
   <i type="int" name="NREBOOT">     0</i>
   <i type="int" name="NMIN">     0</i>
   <i name="EREF">      0.00000000</i>
   <separator name="electronic smearing" >
    <i type="int" name="ISMEAR">     1</i>
    <i name="SIGMA">      0.01000000</i>
    <i name="KSPACING">      0.50000000</i>
    <i type="logical" name="KGAMMA"> T  </i>
   </separator>
   <separator name="electronic projectors" >
    <i type="logical" name="LREAL"> F  </i>
    <v name="ROPT">      0.00000000      0.00000000</v>
    <i type="int" name="LMAXPAW">  -100</i>
    <i type="int" name="LMAXMIX">     2</i>
    <i type="logical" name="NLSPLINE"> F  </i>
   </separator>
   <separator name="electronic startup" >
    <i type="int" name="ISTART">     0</i>
    <i type="int" name="ICHARG">     2</i>
    <i type="int" name="INIWAV">     1</i>
   </separator>
   <separator name="electronic spin" >
    <i type="int" name="ISPIN">     1</i>
    <i type="logical" name="LNONCOLLINEAR"> F  </i>
    <v name="MAGMOM">      1.00000000      1.00000000      1.00000000      1.00000000      1.00000000      1.00000000      1.00000000      1.00000000</v>
    <i name="NUPDOWN">     -1.00000000</i>
    <i type="logical" name="LSORBIT"> F  </i>
    <v name="SAXIS">      0.00000000      0.00000000      1.00000000</v>
    <i type="logical" name="LSPIRAL"> F  </i>
    <v name="QSPIRAL">      0.00000000      0.00000000      0.00000000</v>
    <i type="logical" name="LZEROZ"> F  </i>
   </separator>
   <separator name="electronic exchange-correlation" >
    <i type="logical" name="LASPH"> F  </i>
    <i type="logical" name="LMETAGGA"> F  </i>
   </separator>
   <separator name="electronic convergence" >
    <i type="int" name="NELM">    60</i>
    <i type="int" name="NELMDL">    -5</i>
    <i type="int" name="NELMIN">     2</i>
    <i name="ENINI">    700.00000000</i>
    <separator name="electronic convergence detail" >
     <i type="logical" name="LDIAG"> T  </i>
     <i type="logical" name="LSUBROT"> T  </i>
     <i name="WEIMIN">      0.00100000</i>
     <i name="EBREAK">      0.00000074</i>
     <i name="DEPER">      0.30000000</i>
     <i type="int" name="NRMM">     4</i>
     <i name="TIME">      0.40000000</i>
    </separator>
   </separator>
   <separator name="electronic mixer" >
    <i name="AMIX">      0.40000000</i>
    <i name="BMIX">      1.00000000</i>
    <i name="AMIN">      0.10000000</i>
    <i name="AMIX_MAG">      1.60000000</i>
    <i name="BMIX_MAG">      1.00000000</i>
    <separator name="electronic mixer details" >
     <i type="int" name="IMIX">     4</i>
     <i type="int" name="MAXMIX">   -45</i>
     <i name="WC">    100.00000000</i>
     <i type="int" name="INIMIX">     1</i>
     <i type="int" name="MIXPRE">     1</i>
     <i type="int" name="MREMOVE">     5</i>
    </separator>
   </separator>
   <separator name="electronic dipolcorrection" >
    <i type="logical" name="LDIPOL"> F  </i>
    <i type="logical" name="LMONO"> F  </i>
    <i type="int" name="IDIPOL">     0</i>
    <i name="EPSILON">      1.00000000</i>
    <v name="DIPOL">   -100.00000000   -100.00000000   -100.00000000</v>
    <i name="EFIELD">      0.00000000</i>
   </separator>
  </separator>
  <separator name="grids" >
   <i type="int" name="NGX">    30</i>
   <i type="int" name="NGY">    30</i>
   <i type="int" name="NGZ">    30</i>
   <i type="int" name="NGXF">    60</i>
   <i type="int" name="NGYF">    60</i>
   <i type="int" name="NGZF">    60</i>
   <i type="logical" name="ADDGRID"> F  </i>
  </separator>
  <separator name="ionic" >
   <i type="int" name="NSW">    10</i>
   <i type="int" name="IBRION">     2</i>
   <i type="int" name="ISIF">     2</i>
   <i name="PSTRESS">      0.00000000</i>
   <i name="EDIFFG">      0.00100000</i>
   <i type="int" name="NFREE">     1</i>
   <i name="POTIM">      0.50000000</i>
   <i name="SMASS">     -3.00000000</i>
   <i name="SCALEE">      1.00000000</i>
  </separator>
  <separator name="ionic md" >
   <i name="TEBEG">      0.00010000</i>
   <i name="TEEND">      0.00010000</i>
   <i type="int" name="NBLOCK">     1</i>
   <i type="int" name="KBLOCK">    10</i>
   <i type="int" name="NPACO">   256</i>
   <i name="APACO">     16.00000000</i>
  </separator>
  <separator name="symmetry" >
   <i type="int" name="ISYM">     2</i>
   <i name="SYMPREC">      0.00001000</i>
  </separator>
  <separator name="dos" >
   <i type="logical" name="LORBIT"> F  </i>
   <v name="RWIGS">     -1.00000000     -1.00000000</v>
   <i type="int" name="NEDOS">   301</i>
   <i name="EMIN">     10.00000000</i>
   <i name="EMAX">    -10.00000000</i>
   <i name="EFERMI">      0.00000000</i>
  </separator>
  <separator name="writing" >
   <i type="int" name="NWRITE">     2</i>
   <i type="logical" name="LWAVE"> T  </i>
   <i type="logical" name="LCHARG"> T  </i>
   <i type="logical" name="LPARD"> F  </i>
   <i type="logical" name="LVTOT"> F  </i>
   <i type="logical" name="LVHAR"> F  </i>
   <i type="logical" name="LELF"> F  </i>
   <i type="logical" name="LOPTICS"> F  </i>
   <v name="STM">      0.00000000      0.00000000      0.00000000      0.00000000      0.00000000      0.00000000      0.00000000</v>
  </separator>
  <separator name="performance" >
   <i type="int" name="NPAR">     1</i>
   <i type="int" name="NSIM">     4</i>
   <i type="int" name="NBLK">    -1</i>
   <i type="logical" name="LPLANE"> T  </i>
   <i type="logical" name="LSCALAPACK"> F  </i>
   <i type="logical" name="LSCAAWARE"> F  </i>
   <i type="logical" name="LSCALU"> F  </i>
   <i type="logical" name="LASYNC"> F  </i>
   <i type="logical" name="LORBITALREAL"> F  </i>
  </separator>
  <separator name="miscellaneous" >
   <i type="int" name="IDIOT">     3</i>
   <i type="logical" name="LMUSIC"> F  </i>
   <v name="POMASS">     12.01100000    180.94800000</v>
   <v name="DARWINR">      0.00000000      0.00000000</v>
   <v name="DARWINV">      1.00000000      1.00000000</v>
   <i type="logical" name="LCORR"> T  </i>
  </separator>
  <i type="logical" name="GGA_COMPAT"> T  </i>
  <i type="logical" name="LBERRY"> F  </i>
  <i type="int" name="ICORELEVEL">     0</i>
  <i type="logical" name="LDAU"> F  </i>
  <i type="int" name="I_CONSTRAINED_M">     0</i>
  <separator name="electronic exchange-correlation" >
   <i type="string" name="GGA">--</i>
   <i type="int" name="VOSKOWN">     0</i>
   <i type="logical" name="LHFCALC"> F  </i>
   <i type="string" name="PRECFOCK"></i>
   <i type="logical" name="LHFONE"> F  </i>
   <i type="logical" name="LRHFCALC"> F  </i>
   <i type="logical" name="LTHOMAS"> F  </i>
   <i type="logical" name="LMODELHF"> F  </i>
   <i name="ENCUT4O">     -1.00000000</i>
   <i type="int" name="EXXOEP">     0</i>
   <i type="int" name="FOURORBIT">     0</i>
   <i name="AEXX">      0.00000000</i>
   <i name="HFALPHA">      0.00000000</i>
   <i name="ALDAX">      1.00000000</i>
   <i name="AGGAX">      1.00000000</i>
   <i name="ALDAC">      1.00000000</i>
   <i name="AGGAC">      1.00000000</i>
   <i type="int" name="NKREDX">     1</i>
   <i type="int" name="NKREDY">     1</i>
   <i type="int" name="NKREDZ">     1</i>
   <i type="logical" name="SHIFTRED"> F  </i>
   <i type="logical" name="ODDONLY"> F  </i>
   <i type="logical" name="EVENONLY"> F  </i>
   <i type="int" name="LMAXFOCK">     0</i>
   <i type="int" name="NMAXFOCKAE">     0</i>
   <i type="logical" name="LFOCKAEDFT"> F  </i>
   <i name="HFSCREEN">      0.00000000</i>
   <i name="HFSCREENC">      0.00000000</i>
  </separator>
  <separator name="vdW DFT" >
   <i type="logical" name="LUSE_VDW"> F  </i>
   <i name="Zab_VDW">     -0.84910000</i>
   <i name="PARAM1">      0.12340000</i>
   <i name="PARAM2">      1.00000000</i>
   <i name="PARAM3">      0.00000000</i>
  </separator>
  <separator name="model GW" >
   <i type="int" name="MODEL_GW">     0</i>
   <i name="MODEL_EPS0">      6.72110039</i>
   <i name="MODEL_ALPHA">      1.00000000</i>
  </separator>
  <separator name="linear response parameters" >
   <i type="logical" name="LEPSILON"> F  </i>
   <i type="logical" name="LRPA"> F  </i>
   <i type="logical" name="LNABLA"> F  </i>
   <i type="logical" name="LVEL"> F  </i>
   <i type="int" name="KINTER">     0</i>
   <i name="CSHIFT">      0.10000000</i>
   <i name="OMEGAMAX">     -1.00000000</i>
  </separator>
  <separator name="orbital magnetization" >
   <i type="logical" name="NUCIND"> F  </i>
   <v name="MAGPOS">      0.00000000      0.00000000      0.00000000</v>
   <i type="logical" name="LNICSALL"> T  </i>
   <i type="logical" name="ORBITALMAG"> F  </i>
   <i type="logical" name="LMAGBLOCH"> F  </i>
   <i type="logical" name="LCHIMAG"> F  </i>
   <i type="logical" name="LGAUGE"> T  </i>
   <i type="int" name="MAGATOM">     0</i>
   <v name="MAGDIPOL">      0.00000000      0.00000000      0.00000000</v>
   <v name="AVECCONST">      0.00000000      0.00000000      0.00000000</v>
  </separator>
  <separator name="response functions" >
   <i type="logical" name="LADDER"> F  </i>
   <i type="logical" name="LHARTREE"> T  </i>
   <i type="int" name="IBSE">     0</i>
   <i type="logical" name="LTCTE"> F  </i>
   <i type="logical" name="LTETE"> F  </i>
   <i type="logical" name="LFXCEPS"> F  </i>
   <i type="logical" name="L2ORDER"> F  </i>
   <i type="logical" name="LUSEW"> F  </i>
   <i name="ENCUTGW">     -2.00000000</i>
   <i name="ENCUTGWSOFT">     -2.00000000</i>
   <i name="ENCUTLF">     -1.00000000</i>
   <i type="int" name="LMAXMP2">    -1</i>
   <i name="SCISSOR">      0.00000000</i>
   <i type="int" name="NOMEGA">     0</i>
   <i type="int" name="NOMEGAR">     0</i>
   <i type="int" name="NBANDSGW">    -1</i>
   <i type="int" name="NBANDSO">    -1</i>
   <i type="int" name="NBANDSV">    -1</i>
   <i name="OPTEMAX">      0.00000000</i>
   <i type="int" name="NELM">     1</i>
   <i type="int" name="DIM">     3</i>
   <i type="int" name="ANTIRES">     0</i>
   <i name="OMEGAMAX">    -30.00000000</i>
   <i name="OMEGATL">   -200.00000000</i>
   <i type="int" name="OMEGAGRID">     0</i>
   <i name="CSHIFT">     -0.10000000</i>
   <i type="logical" name="SELFENERGY"> F  </i>
   <i type="logical" name="LSPECTRAL"> F  </i>
   <i type="logical" name="ODDONLYGW"> F  </i>
   <i type="logical" name="EVENONLYGW"> F  </i>
   <i type="int" name="NKREDLFX">     1</i>
   <i type="int" name="NKREDLFY">     1</i>
   <i type="int" name="NKREDLFZ">     1</i>
   <i type="int" name="MAXMEM">  1800</i>
   <i type="int" name="TELESCOPE">     0</i>
  </separator>
 </parameters>
 <atominfo>
  <atoms>       8 </atoms>
  <types>       2 </types>
  <array name="atoms" >
   <dimension dim="1">ion</dimension>
   <field type="string">element</field>
   <field type="int">atomtype</field>
   <set>
    <rc><c>C </c><c>   1</c></rc>
    <rc><c>C </c><c>   1</c></rc>
    <rc><c>C </c><c>   1</c></rc>
    <rc><c>C </c><c>   1</c></rc>
    <rc><c>Ta</c><c>   2</c></rc>
    <rc><c>Ta</c><c>   2</c></rc>
    <rc><c>Ta</c><c>   2</c></rc>
    <rc><c>Ta</c><c>   2</c></rc>
   </set>
  </array>
  <array name="atomtypes" >
   <dimension dim="1">type</dimension>
   <field type="int">atomspertype</field>
   <field type="string">element</field>
   <field>mass</field>
   <field>valence</field>
   <field type="string">pseudopotential</field>
   <set>
    <rc><c>   4</c><c>C </c><c>     12.01100000</c><c>      4.00000000</c><c> PAW_PBE C 08Apr2002                    </c></rc>
    <rc><c>   4</c><c>Ta</c><c>    180.94800000</c><c>      5.00000000</c><c>  PAW_PBE Ta 17Jan2003                  </c></rc>
   </set>
  </array>
 </atominfo>
 <structure name="initialpos" >
  <crystal>
   <varray name="basis" >
    <v>       4.47500000       0.00000000       0.00000000 </v>
    <v>       0.00000000       4.47500000       0.00000000 </v>
    <v>       0.00000000       0.00000000       4.47500000 </v>
   </varray>
   <i name="volume">     89.61467187 </i>
   <varray name="rec_basis" >
    <v>       0.22346369       0.00000000       0.00000000 </v>
    <v>       0.00000000       0.22346369       0.00000000 </v>
    <v>       0.00000000       0.00000000       0.22346369 </v>
   </varray>
  </crystal>
  <varray name="positions" >
   <v>       0.00000000       0.00000000       0.50000000 </v>
   <v>       0.00000000       0.50000000       0.00000000 </v>
   <v>       0.50000000       0.00000000       0.00000000 </v>
   <v>       0.50000000       0.50000000       0.50000000 </v>
   <v>       0.00000000       0.00000000       0.00000000 </v>
   <v>       0.00000000       0.50000000       0.50000000 </v>
   <v>       0.50000000       0.00000000       0.50000000 </v>
   <v>       0.50000000       0.50000000       0.00000000 </v>
  </varray>
 </structure>
 <calculation>
  <scstep>
   <time name="dav">   18.68   29.87</time>
   <time name="total">   19.18   30.82</time>
   <energy>
    <i name="alphaZ">    210.95049804 </i>
    <i name="ewald">  -1490.29701356 </i>
    <i name="hartreedc">    -63.00797306 </i>
    <i name="XCdc">   -211.04258845 </i>
    <i name="pawpsdc">    744.43864639 </i>
    <i name="pawaedc">   -451.89125119 </i>
    <i name="eentropy">     -0.00017574 </i>
    <i name="bandstr">    262.18839392 </i>
    <i name="atom">   1111.21216089 </i>
    <i name="e_fr_energy">    112.55069725 </i>
    <i name="e_wo_entrp">    112.55087299 </i>
    <i name="e_0_energy">    112.55075583 </i>
   </energy>
  </scstep>
  <scstep>
   <time name="dav">   22.92   32.46</time>
   <time name="total">   22.93   32.70</time>
   <energy>
    <i name="e_fr_energy">    -90.99941600 </i>
    <i name="e_wo_entrp">    -90.99951872 </i>
    <i name="e_0_energy">    -90.99945024 </i>
   </energy>
  </scstep>
  <scstep>
   <time name="dav">   24.22   34.02</time>
   <time name="total">   24.23   34.14</time>
   <energy>
    <i name="e_fr_energy">   -103.08194415 </i>
    <i name="e_wo_entrp">   -103.08185085 </i>
    <i name="e_0_energy">   -103.08191305 </i>
   </energy>
  </scstep>
  <scstep>
   <time name="dav">   24.76   37.31</time>
   <time name="total">   24.77   37.40</time>
   <energy>
    <i name="e_fr_energy">   -103.27363225 </i>
    <i name="e_wo_entrp">   -103.27331140 </i>
    <i name="e_0_energy">   -103.27352530 </i>
   </energy>
  </scstep>
  <scstep>
   <time name="dav">   22.50   33.21</time>
   <time name="total">   23.27   34.15</time>
   <energy>
    <i name="e_fr_energy">   -103.27602436 </i>
    <i name="e_wo_entrp">   -103.27570571 </i>
    <i name="e_0_energy">   -103.27591814 </i>
   </energy>
  </scstep>
  <scstep>
   <time name="dav">   21.18   29.46</time>
   <time name="total">   22.33   31.44</time>
   <energy>
    <i name="e_fr_energy">    -89.55444183 </i>
    <i name="e_wo_entrp">    -89.55434127 </i>
    <i name="e_0_energy">    -89.55440831 </i>
   </energy>
  </scstep>
  <scstep>
   <time name="dav">   21.46   31.76</time>
   <time name="total">   22.70   33.67</time>
   <energy>
    <i name="e_fr_energy">    -89.25672457 </i>
    <i name="e_wo_entrp">    -89.25658934 </i>
    <i name="e_0_energy">    -89.25667950 </i>
   </energy>
  </scstep>
  <scstep>
   <time name="dav">   21.04   31.48</time>
   <time name="total">   22.37   33.81</time>
   <energy>
    <i name="e_fr_energy">    -89.02156409 </i>
    <i name="e_wo_entrp">    -89.02163781 </i>
    <i name="e_0_energy">    -89.02158866 </i>
   </energy>
  </scstep>
  <scstep>
   <time name="dav">   22.04   31.45</time>
   <time name="total">   23.41   33.76</time>
   <energy>
    <i name="e_fr_energy">    -89.00892329 </i>
    <i name="e_wo_entrp">    -89.00878806 </i>
    <i name="e_0_energy">    -89.00887821 </i>
   </energy>
  </scstep>
  <scstep>
   <time name="dav">   21.70   30.29</time>
   <time name="total">   23.17   32.98</time>
   <energy>
    <i name="e_fr_energy">    -89.00870544 </i>
    <i name="e_wo_entrp">    -89.00857022 </i>
    <i name="e_0_energy">    -89.00866037 </i>
   </energy>
  </scstep>
  <scstep>
   <time name="dav">   21.89   31.05</time>
   <time name="total">   23.19   33.29</time>
   <energy>
    <i name="e_fr_energy">    -89.00854096 </i>
    <i name="e_wo_entrp">    -89.00840573 </i>
    <i name="e_0_energy">    -89.00849588 </i>
   </energy>
  </scstep>
  <scstep>
   <time name="dav">   14.24   21.24</time>
   <time name="total">   14.81   22.08</time>
   <energy>
    <i name="alphaZ">    210.95049804 </i>
    <i name="ewald">  -1490.29701356 </i>
    <i name="hartreedc">    -90.03399588 </i>
    <i name="XCdc">   -204.69937308 </i>
    <i name="pawpsdc">   1061.67030498 </i>
    <i name="pawaedc">   -773.73705262 </i>
    <i name="eentropy">     -0.00013523 </i>
    <i name="bandstr">     85.92606542 </i>
    <i name="atom">   1111.21216089 </i>
    <i name="e_fr_energy">    -89.00854103 </i>
    <i name="e_wo_entrp">    -89.00840581 </i>
    <i name="e_0_energy">    -89.00849596 </i>
   </energy>
  </scstep>
  <parameters_embedded>
   <separator name="dft+d2" >
    <i type="logical" name="LVDW"> F  </i>
   </separator>
  </parameters_embedded>
  <structure>
   <crystal>
    <varray name="basis" >
     <v>       4.47500000       0.00000000       0.00000000 </v>
     <v>       0.00000000       4.47500000       0.00000000 </v>
     <v>       0.00000000       0.00000000       4.47500000 </v>
    </varray>
    <i name="volume">     89.61467187 </i>
    <varray name="rec_basis" >
     <v>       0.22346369       0.00000000       0.00000000 </v>
     <v>       0.00000000       0.22346369       0.00000000 </v>
     <v>       0.00000000       0.00000000       0.22346369 </v>
    </varray>
   </crystal>
   <varray name="positions" >
    <v>       0.00000000       0.00000000       0.50000000 </v>
    <v>       0.00000000       0.50000000       0.00000000 </v>
    <v>       0.50000000       0.00000000       0.00000000 </v>
    <v>       0.50000000       0.50000000       0.50000000 </v>
    <v>       0.00000000       0.00000000       0.00000000 </v>
    <v>       0.00000000       0.50000000       0.50000000 </v>
    <v>       0.50000000       0.00000000       0.50000000 </v>
    <v>       0.50000000       0.50000000       0.00000000 </v>
   </varray>
  </structure>
  <varray name="forces" >
   <v>       0.00000000       0.00000000       0.00000000 </v>
   <v>       0.00000000       0.00000000       0.00000000 </v>
   <v>       0.00000000       0.00000000       0.00000000 </v>
   <v>       0.00000000       0.00000000       0.00000000 </v>
   <v>       0.00000000       0.00000000       0.00000000 </v>
   <v>       0.00000000       0.00000000       0.00000000 </v>
   <v>       0.00000000       0.00000000       0.00000000 </v>
   <v>       0.00000000       0.00000000       0.00000000 </v>
  </varray>
  <varray name="stress" >
   <v>      -0.63467446       0.00000000       0.00000000 </v>
   <v>       0.00000000      -0.63467446       0.00000000 </v>
   <v>       0.00000000       0.00000000      -0.63467446 </v>
  </varray>
  <energy>
   <i name="e_fr_energy">    -89.00854103 </i>
   <i name="e_wo_entrp">    -89.00849596 </i>
   <i name="e_0_energy">     -0.00013523 </i>
  </energy>
  <time name="totalsc">  285.99  423.01</time>
  <eigenvalues>
   <array>
    <dimension dim="1">band</dimension>
    <dimension dim="2">kpoint</dimension>
    <dimension dim="3">spin</dimension>
    <field>eigene</field>
    <field>occ</field>
    <set>
     <set comment="spin 1">
      <set comment="kpoint 1">
       <r>   -6.1024    1.0000 </r>
       <r>   -4.0452    1.0000 </r>
       <r>   -4.0452    1.0000 </r>
       <r>   -4.0452    1.0000 </r>
       <r>    3.7399    1.0000 </r>
       <r>    3.7399    1.0000 </r>
       <r>    3.7399    1.0000 </r>
       <r>    3.9764    1.0000 </r>
       <r>    3.9764    1.0000 </r>
       <r>    3.9764    1.0000 </r>
       <r>    6.4739    1.0000 </r>
       <r>    6.4739    1.0000 </r>
       <r>    6.4739    1.0000 </r>
       <r>    6.5852    1.0000 </r>
       <r>    6.7419    1.0000 </r>
       <r>    6.7419    1.0000 </r>
       <r>    6.7419    1.0000 </r>
       <r>    6.9261    1.0000 </r>
       <r>    6.9261    1.0000 </r>
       <r>    7.6662    1.0000 </r>
       <r>    7.6662    1.0000 </r>
       <r>    8.3937    0.0000 </r>
       <r>    9.9555    0.0000 </r>
       <r>    9.9555    0.0000 </r>
       <r>   11.3464    0.0000 </r>
       <r>   11.3464    0.0000 </r>
       <r>   11.3464    0.0000 </r>
       <r>   12.4280    0.0000 </r>
       <r>   12.4280    0.0000 </r>
       <r>   12.4280    0.0000 </r>
       <r>   12.4787    0.0000 </r>
       <r>   12.4787    0.0000 </r>
       <r>   12.4787    0.0000 </r>
       <r>   15.1529    0.0000 </r>
      </set>
      <set comment="kpoint 2">
       <r>   -5.8369    1.0000 </r>
       <r>   -3.9950    1.0000 </r>
       <r>   -3.8482    1.0000 </r>
       <r>   -3.8482    1.0000 </r>
       <r>    3.1571    1.0000 </r>
       <r>    3.6032    1.0000 </r>
       <r>    3.6032    1.0000 </r>
       <r>    3.7837    1.0000 </r>
       <r>    3.7837    1.0000 </r>
       <r>    4.1306    1.0000 </r>
       <r>    5.4470    1.0000 </r>
       <r>    5.4470    1.0000 </r>
       <r>    5.5580    1.0000 </r>
       <r>    6.1423    1.0000 </r>
       <r>    6.3156    1.0000 </r>
       <r>    6.3751    1.0000 </r>
       <r>    6.6292    1.0000 </r>
       <r>    7.1941    1.0000 </r>
       <r>    7.3030    1.0000 </r>
       <r>    7.3030    1.0000 </r>
       <r>    8.4867    0.0000 </r>
       <r>    9.0316    0.0000 </r>
       <r>   10.1860    0.0000 </r>
       <r>   11.1410    0.0000 </r>
       <r>   11.5966    0.0000 </r>
       <r>   12.1009    0.0000 </r>
       <r>   12.1009    0.0000 </r>
       <r>   12.3058    0.0000 </r>
       <r>   12.3058    0.0000 </r>
       <r>   12.4874    0.0000 </r>
       <r>   12.4874    0.0000 </r>
       <r>   12.5190    0.0000 </r>
       <r>   12.5338    0.0000 </r>
       <r>   15.3453    0.0000 </r>
      </set>
      <set comment="kpoint 3">
       <r>   -5.3538    1.0000 </r>
       <r>   -4.0099    1.0000 </r>
       <r>   -3.5318    1.0000 </r>
       <r>   -3.5318    1.0000 </r>
       <r>    2.5348    1.0000 </r>
       <r>    3.3018    1.0000 </r>
       <r>    3.3018    1.0000 </r>
       <r>    3.6265    1.0000 </r>
       <r>    3.6265    1.0000 </r>
       <r>    4.0694    1.0000 </r>
       <r>    4.3490    1.0000 </r>
       <r>    4.3490    1.0000 </r>
       <r>    4.4170    1.0000 </r>
       <r>    5.6385    1.0000 </r>
       <r>    6.0259    1.0000 </r>
       <r>    6.0937    1.0000 </r>
       <r>    6.4656    1.0000 </r>
       <r>    6.8158    1.0000 </r>
       <r>    8.2893    1.0000 </r>
       <r>    8.2893    1.0000 </r>
       <r>    9.2548    0.0000 </r>
       <r>   10.0239    0.0000 </r>
       <r>   10.6968    0.0000 </r>
       <r>   10.7943    0.0000 </r>
       <r>   11.5454    0.0000 </r>
       <r>   11.5454    0.0000 </r>
       <r>   12.4189    0.0000 </r>
       <r>   12.4629    0.0000 </r>
       <r>   12.4629    0.0000 </r>
       <r>   12.5067    0.0000 </r>
       <r>   12.9051    0.0000 </r>
       <r>   13.0880    0.0000 </r>
       <r>   13.0880    0.0000 </r>
       <r>   15.1861    0.0000 </r>
      </set>
      <set comment="kpoint 4">
       <r>   -4.7651    1.0000 </r>
       <r>   -4.2588    1.0000 </r>
       <r>   -3.2710    1.0000 </r>
       <r>   -3.2710    1.0000 </r>
       <r>    2.3930    1.0000 </r>
       <r>    2.9366    1.0000 </r>
       <r>    2.9366    1.0000 </r>
       <r>    2.9386    1.0000 </r>
       <r>    3.5358    1.0000 </r>
       <r>    3.5358    1.0000 </r>
       <r>    3.8353    1.0000 </r>
       <r>    3.8353    1.0000 </r>
       <r>    4.7987    1.0000 </r>
       <r>    5.2153    1.0000 </r>
       <r>    5.8822    1.0000 </r>
       <r>    5.9214    1.0000 </r>
       <r>    6.3823    1.0000 </r>
       <r>    6.4944    1.0000 </r>
       <r>    9.4430    0.0000 </r>
       <r>    9.4430    0.0000 </r>
       <r>    9.8614    0.0000 </r>
       <r>   10.3603    0.0000 </r>
       <r>   10.5933    0.0000 </r>
       <r>   10.5933    0.0000 </r>
       <r>   11.0671    0.0000 </r>
       <r>   11.4384    0.0000 </r>
       <r>   11.9340    0.0000 </r>
       <r>   12.1313    0.0000 </r>
       <r>   12.4649    0.0000 </r>
       <r>   12.4649    0.0000 </r>
       <r>   13.5496    0.0000 </r>
       <r>   13.5496    0.0000 </r>
       <r>   13.8197    0.0000 </r>
       <r>   14.5756    0.0000 </r>
      </set>
      <set comment="kpoint 5">
       <r>   -5.5753    1.0000 </r>
       <r>   -3.7873    1.0000 </r>
       <r>   -3.7873    1.0000 </r>
       <r>   -3.6549    1.0000 </r>
       <r>    2.9883    1.0000 </r>
       <r>    2.9883    1.0000 </r>
       <r>    3.1733    1.0000 </r>
       <r>    3.6842    1.0000 </r>
       <r>    3.8889    1.0000 </r>
       <r>    3.8889    1.0000 </r>
       <r>    5.0395    1.0000 </r>
       <r>    5.2774    1.0000 </r>
       <r>    5.3951    1.0000 </r>
       <r>    5.3951    1.0000 </r>
       <r>    5.5013    1.0000 </r>
       <r>    5.6645    1.0000 </r>
       <r>    7.2311    1.0000 </r>
       <r>    7.2311    1.0000 </r>
       <r>    7.2665    1.0000 </r>
       <r>    7.6412    1.0000 </r>
       <r>    8.5526    0.0000 </r>
       <r>    9.1982    0.0000 </r>
       <r>   11.0528    0.0000 </r>
       <r>   11.8379    0.0000 </r>
       <r>   11.8379    0.0000 </r>
       <r>   11.9427    0.0000 </r>
       <r>   12.3964    0.0000 </r>
       <r>   12.3964    0.0000 </r>
       <r>   12.4266    0.0000 </r>
       <r>   12.5845    0.0000 </r>
       <r>   12.5938    0.0000 </r>
       <r>   12.5938    0.0000 </r>
       <r>   13.3802    0.0000 </r>
       <r>   15.1364    0.0000 </r>
      </set>
      <set comment="kpoint 6">
       <r>   -5.0985    1.0000 </r>
       <r>   -3.7846    1.0000 </r>
       <r>   -3.4461    1.0000 </r>
       <r>   -3.3469    1.0000 </r>
       <r>    2.3627    1.0000 </r>
       <r>    2.6279    1.0000 </r>
       <r>    2.6432    1.0000 </r>
       <r>    3.5876    1.0000 </r>
       <r>    3.6603    1.0000 </r>
       <r>    3.8476    1.0000 </r>
       <r>    4.0729    1.0000 </r>
       <r>    4.4312    1.0000 </r>
       <r>    4.5195    1.0000 </r>
       <r>    4.9714    1.0000 </r>
       <r>    5.2415    1.0000 </r>
       <r>    5.2445    1.0000 </r>
       <r>    7.1526    1.0000 </r>
       <r>    7.5950    1.0000 </r>
       <r>    8.1550    1.0000 </r>
       <r>    8.2422    1.0000 </r>
       <r>    9.3026    0.0000 </r>
       <r>    9.9357    0.0000 </r>
       <r>   11.4172    0.0000 </r>
       <r>   11.4336    0.0000 </r>
       <r>   11.5345    0.0000 </r>
       <r>   11.5701    0.0000 </r>
       <r>   12.3361    0.0000 </r>
       <r>   12.3750    0.0000 </r>
       <r>   12.4001    0.0000 </r>
       <r>   12.6788    0.0000 </r>
       <r>   13.1109    0.0000 </r>
       <r>   13.8866    0.0000 </r>
       <r>   14.3539    0.0000 </r>
       <r>   14.9208    0.0000 </r>
      </set>
      <set comment="kpoint 7">
       <r>   -4.5165    1.0000 </r>
       <r>   -4.0184    1.0000 </r>
       <r>   -3.1451    1.0000 </r>
       <r>   -3.1063    1.0000 </r>
       <r>    2.2267    1.0000 </r>
       <r>    2.2286    1.0000 </r>
       <r>    2.2577    1.0000 </r>
       <r>    2.7710    1.0000 </r>
       <r>    3.5256    1.0000 </r>
       <r>    3.5409    1.0000 </r>
       <r>    3.9702    1.0000 </r>
       <r>    4.0185    1.0000 </r>
       <r>    4.3179    1.0000 </r>
       <r>    4.6134    1.0000 </r>
       <r>    5.0744    1.0000 </r>
       <r>    5.0975    1.0000 </r>
       <r>    7.1742    1.0000 </r>
       <r>    7.3460    1.0000 </r>
       <r>    9.3694    0.0000 </r>
       <r>    9.4027    0.0000 </r>
       <r>   10.1313    0.0000 </r>
       <r>   10.5357    0.0000 </r>
       <r>   10.5943    0.0000 </r>
       <r>   10.8479    0.0000 </r>
       <r>   10.9377    0.0000 </r>
       <r>   11.8307    0.0000 </r>
       <r>   12.0491    0.0000 </r>
       <r>   12.3653    0.0000 </r>
       <r>   12.3843    0.0000 </r>
       <r>   12.5102    0.0000 </r>
       <r>   13.7351    0.0000 </r>
       <r>   14.2391    0.0000 </r>
       <r>   14.7228    0.0000 </r>
       <r>   15.2619    0.0000 </r>
      </set>
      <set comment="kpoint 8">
       <r>   -4.6325    1.0000 </r>
       <r>   -3.3986    1.0000 </r>
       <r>   -3.3986    1.0000 </r>
       <r>   -3.0622    1.0000 </r>
       <r>    1.9609    1.0000 </r>
       <r>    2.0201    1.0000 </r>
       <r>    2.0201    1.0000 </r>
       <r>    3.2709    1.0000 </r>
       <r>    3.5327    1.0000 </r>
       <r>    3.7537    1.0000 </r>
       <r>    3.7537    1.0000 </r>
       <r>    4.1899    1.0000 </r>
       <r>    4.2608    1.0000 </r>
       <r>    4.3199    1.0000 </r>
       <r>    4.3199    1.0000 </r>
       <r>    4.6124    1.0000 </r>
       <r>    8.2075    1.0000 </r>
       <r>    8.2075    1.0000 </r>
       <r>    8.2463    1.0000 </r>
       <r>    8.7673    0.0000 </r>
       <r>    9.7595    0.0000 </r>
       <r>   10.2549    0.0000 </r>
       <r>   11.1349    0.0000 </r>
       <r>   11.6311    0.0000 </r>
       <r>   11.6311    0.0000 </r>
       <r>   12.0735    0.0000 </r>
       <r>   12.1814    0.0000 </r>
       <r>   12.1915    0.0000 </r>
       <r>   12.1915    0.0000 </r>
       <r>   13.0452    0.0000 </r>
       <r>   13.0452    0.0000 </r>
       <r>   14.4977    0.0000 </r>
       <r>   15.3881    0.0000 </r>
       <r>   16.0746    0.0000 </r>
      </set>
      <set comment="kpoint 9">
       <r>   -4.0647    1.0000 </r>
       <r>   -3.5901    1.0000 </r>
       <r>   -3.0145    1.0000 </r>
       <r>   -2.8791    1.0000 </r>
       <r>    1.5524    1.0000 </r>
       <r>    1.6269    1.0000 </r>
       <r>    1.8891    1.0000 </r>
       <r>    2.3978    1.0000 </r>
       <r>    3.5170    1.0000 </r>
       <r>    3.5748    1.0000 </r>
       <r>    3.8379    1.0000 </r>
       <r>    3.8392    1.0000 </r>
       <r>    3.8863    1.0000 </r>
       <r>    4.0057    1.0000 </r>
       <r>    4.1890    1.0000 </r>
       <r>    4.2711    1.0000 </r>
       <r>    8.2528    1.0000 </r>
       <r>    8.3524    0.1667 </r>
       <r>    9.3666    0.0000 </r>
       <r>    9.8674    0.0000 </r>
       <r>   10.4277    0.0000 </r>
       <r>   10.4935    0.0000 </r>
       <r>   10.9797    0.0000 </r>
       <r>   11.0282    0.0000 </r>
       <r>   11.2530    0.0000 </r>
       <r>   11.7554    0.0000 </r>
       <r>   12.0602    0.0000 </r>
       <r>   12.0861    0.0000 </r>
       <r>   12.5465    0.0000 </r>
       <r>   12.9068    0.0000 </r>
       <r>   13.5653    0.0000 </r>
       <r>   14.0661    0.0000 </r>
       <r>   16.1896    0.0000 </r>
       <r>   16.2333    0.0000 </r>
      </set>
      <set comment="kpoint 10">
       <r>   -3.5244    1.0000 </r>
       <r>   -3.1094    1.0000 </r>
       <r>   -3.1094    1.0000 </r>
       <r>   -2.8206    1.0000 </r>
       <r>    1.2304    1.0000 </r>
       <r>    1.4370    1.0000 </r>
       <r>    1.4370    1.0000 </r>
       <r>    1.8145    1.0000 </r>
       <r>    3.5607    1.0000 </r>
       <r>    3.5954    1.0000 </r>
       <r>    3.5954    1.0000 </r>
       <r>    3.6010    1.0000 </r>
       <r>    3.6163    1.0000 </r>
       <r>    3.7263    1.0000 </r>
       <r>    3.7263    1.0000 </r>
       <r>    3.9011    1.0000 </r>
       <r>    9.1122    0.0000 </r>
       <r>    9.3398    0.0000 </r>
       <r>    9.3398    0.0000 </r>
       <r>   10.1264    0.0000 </r>
       <r>   10.7302    0.0000 </r>
       <r>   10.7465    0.0000 </r>
       <r>   11.2725    0.0000 </r>
       <r>   11.2725    0.0000 </r>
       <r>   11.4619    0.0000 </r>
       <r>   11.6216    0.0000 </r>
       <r>   11.6216    0.0000 </r>
       <r>   11.6352    0.0000 </r>
       <r>   12.9594    0.0000 </r>
       <r>   13.2832    0.0000 </r>
       <r>   13.2832    0.0000 </r>
       <r>   13.6900    0.0000 </r>
       <r>   16.9865    0.0000 </r>
       <r>   17.0951    0.0000 </r>
      </set>
      <set comment="kpoint 11">
       <r>   -5.3181    1.0000 </r>
       <r>   -3.5832    1.0000 </r>
       <r>   -3.5832    1.0000 </r>
       <r>   -3.5832    1.0000 </r>
       <r>    2.6615    1.0000 </r>
       <r>    2.6615    1.0000 </r>
       <r>    2.6615    1.0000 </r>
       <r>    3.7078    1.0000 </r>
       <r>    3.7078    1.0000 </r>
       <r>    3.7078    1.0000 </r>
       <r>    4.4406    1.0000 </r>
       <r>    5.1399    1.0000 </r>
       <r>    5.1399    1.0000 </r>
       <r>    5.1399    1.0000 </r>
       <r>    5.2014    1.0000 </r>
       <r>    5.2014    1.0000 </r>
       <r>    7.3328    1.0000 </r>
       <r>    7.3328    1.0000 </r>
       <r>    7.3328    1.0000 </r>
       <r>    8.2817    1.0000 </r>
       <r>    8.2817    1.0000 </r>
       <r>    9.1342    0.0000 </r>
       <r>   11.9005    0.0000 </r>
       <r>   11.9005    0.0000 </r>
       <r>   11.9005    0.0000 </r>
       <r>   12.3508    0.0000 </r>
       <r>   12.3508    0.0000 </r>
       <r>   12.3508    0.0000 </r>
       <r>   12.7206    0.0000 </r>
       <r>   12.7206    0.0000 </r>
       <r>   13.3999    0.0000 </r>
       <r>   13.3999    0.0000 </r>
       <r>   13.3999    0.0000 </r>
       <r>   15.9600    0.0000 </r>
      </set>
      <set comment="kpoint 12">
       <r>   -4.8481    1.0000 </r>
       <r>   -3.5626    1.0000 </r>
       <r>   -3.2494    1.0000 </r>
       <r>   -3.2494    1.0000 </r>
       <r>    2.0987    1.0000 </r>
       <r>    2.1611    1.0000 </r>
       <r>    2.1611    1.0000 </r>
       <r>    3.5007    1.0000 </r>
       <r>    3.5656    1.0000 </r>
       <r>    3.5656    1.0000 </r>
       <r>    3.7920    1.0000 </r>
       <r>    4.4263    1.0000 </r>
       <r>    4.4263    1.0000 </r>
       <r>    4.5327    1.0000 </r>
       <r>    4.9207    1.0000 </r>
       <r>    4.9486    1.0000 </r>
       <r>    7.3900    1.0000 </r>
       <r>    8.0874    1.0000 </r>
       <r>    8.2189    1.0000 </r>
       <r>    8.2189    1.0000 </r>
       <r>    9.1913    0.0000 </r>
       <r>    9.7493    0.0000 </r>
       <r>   11.5146    0.0000 </r>
       <r>   11.5146    0.0000 </r>
       <r>   11.6001    0.0000 </r>
       <r>   12.2383    0.0000 </r>
       <r>   12.2383    0.0000 </r>
       <r>   12.2580    0.0000 </r>
       <r>   12.9681    0.0000 </r>
       <r>   13.4781    0.0000 </r>
       <r>   14.2615    0.0000 </r>
       <r>   14.4033    0.0000 </r>
       <r>   14.4033    0.0000 </r>
       <r>   15.8652    0.0000 </r>
      </set>
      <set comment="kpoint 13">
       <r>   -4.2728    1.0000 </r>
       <r>   -3.7820    1.0000 </r>
       <r>   -2.9666    1.0000 </r>
       <r>   -2.9666    1.0000 </r>
       <r>    1.7498    1.0000 </r>
       <r>    1.7498    1.0000 </r>
       <r>    1.9939    1.0000 </r>
       <r>    2.5270    1.0000 </r>
       <r>    3.5035    1.0000 </r>
       <r>    3.5035    1.0000 </r>
       <r>    3.9300    1.0000 </r>
       <r>    3.9573    1.0000 </r>
       <r>    3.9573    1.0000 </r>
       <r>    4.1517    1.0000 </r>
       <r>    4.7841    1.0000 </r>
       <r>    4.8052    1.0000 </r>
       <r>    7.5155    1.0000 </r>
       <r>    7.7675    1.0000 </r>
       <r>    9.4111    0.0000 </r>
       <r>    9.4111    0.0000 </r>
       <r>   10.1432    0.0000 </r>
       <r>   10.6020    0.0000 </r>
       <r>   10.6020    0.0000 </r>
       <r>   10.7795    0.0000 </r>
       <r>   10.9855    0.0000 </r>
       <r>   11.7408    0.0000 </r>
       <r>   12.2001    0.0000 </r>
       <r>   12.2001    0.0000 </r>
       <r>   13.2587    0.0000 </r>
       <r>   13.4634    0.0000 </r>
       <r>   15.0829    0.0000 </r>
       <r>   15.0831    0.0000 </r>
       <r>   15.1511    0.0000 </r>
       <r>   15.5686    0.0000 </r>
      </set>
      <set comment="kpoint 14">
       <r>   -4.3897    1.0000 </r>
       <r>   -3.1822    1.0000 </r>
       <r>   -3.1822    1.0000 </r>
       <r>   -2.9361    1.0000 </r>
       <r>    1.5612    1.0000 </r>
       <r>    1.6500    1.0000 </r>
       <r>    1.6500    1.0000 </r>
       <r>    2.8529    1.0000 </r>
       <r>    3.4857    1.0000 </r>
       <r>    3.5575    1.0000 </r>
       <r>    3.5575    1.0000 </r>
       <r>    4.0619    1.0000 </r>
       <r>    4.0782    1.0000 </r>
       <r>    4.2609    1.0000 </r>
       <r>    4.2609    1.0000 </r>
       <r>    4.3795    1.0000 </r>
       <r>    8.2959    1.0000 </r>
       <r>    8.2959    1.0000 </r>
       <r>    8.7771    0.0000 </r>
       <r>    8.8448    0.0000 </r>
       <r>    9.3521    0.0000 </r>
       <r>   10.1213    0.0000 </r>
       <r>   11.3283    0.0000 </r>
       <r>   11.5519    0.0000 </r>
       <r>   11.5519    0.0000 </r>
       <r>   11.9844    0.0000 </r>
       <r>   12.1186    0.0000 </r>
       <r>   12.1186    0.0000 </r>
       <r>   13.7505    0.0000 </r>
       <r>   14.3570    0.0000 </r>
       <r>   14.3570    0.0000 </r>
       <r>   15.4670    0.0000 </r>
       <r>   15.5417    0.0000 </r>
       <r>   15.9220    0.0000 </r>
      </set>
      <set comment="kpoint 15">
       <r>   -3.8282    1.0000 </r>
       <r>   -3.3593    1.0000 </r>
       <r>   -2.8100    1.0000 </r>
       <r>   -2.7082    1.0000 </r>
       <r>    1.1548    1.0000 </r>
       <r>    1.2190    1.0000 </r>
       <r>    1.5637    1.0000 </r>
       <r>    2.0577    1.0000 </r>
       <r>    3.4611    1.0000 </r>
       <r>    3.4623    1.0000 </r>
       <r>    3.5947    1.0000 </r>
       <r>    3.7224    1.0000 </r>
       <r>    3.7387    1.0000 </r>
       <r>    3.7808    1.0000 </r>
       <r>    4.1378    1.0000 </r>
       <r>    4.1548    1.0000 </r>
       <r>    8.4417    0.0000 </r>
       <r>    8.6801    0.0000 </r>
       <r>    9.4662    0.0000 </r>
       <r>    9.8958    0.0000 </r>
       <r>   10.2078    0.0000 </r>
       <r>   10.6213    0.0000 </r>
       <r>   10.9696    0.0000 </r>
       <r>   10.9873    0.0000 </r>
       <r>   11.0964    0.0000 </r>
       <r>   11.7644    0.0000 </r>
       <r>   11.8666    0.0000 </r>
       <r>   11.9400    0.0000 </r>
       <r>   14.0918    0.0000 </r>
       <r>   14.2890    0.0000 </r>
       <r>   14.9518    0.0000 </r>
       <r>   15.3031    0.0000 </r>
       <r>   16.0546    0.0000 </r>
       <r>   16.2027    0.0000 </r>
      </set>
      <set comment="kpoint 16">
       <r>   -3.2930    1.0000 </r>
       <r>   -2.8836    1.0000 </r>
       <r>   -2.8836    1.0000 </r>
       <r>   -2.6114    1.0000 </r>
       <r>    0.8508    1.0000 </r>
       <r>    1.0678    1.0000 </r>
       <r>    1.0678    1.0000 </r>
       <r>    1.4520    1.0000 </r>
       <r>    3.4210    1.0000 </r>
       <r>    3.4210    1.0000 </r>
       <r>    3.4722    1.0000 </r>
       <r>    3.4737    1.0000 </r>
       <r>    3.4876    1.0000 </r>
       <r>    3.6709    1.0000 </r>
       <r>    3.6709    1.0000 </r>
       <r>    3.7759    1.0000 </r>
       <r>    9.5617    0.0000 </r>
       <r>    9.5772    0.0000 </r>
       <r>    9.5772    0.0000 </r>
       <r>   10.2280    0.0000 </r>
       <r>   10.4707    0.0000 </r>
       <r>   10.6168    0.0000 </r>
       <r>   10.9651    0.0000 </r>
       <r>   10.9651    0.0000 </r>
       <r>   11.4264    0.0000 </r>
       <r>   11.5011    0.0000 </r>
       <r>   11.6741    0.0000 </r>
       <r>   11.6741    0.0000 </r>
       <r>   14.5125    0.0000 </r>
       <r>   14.7760    0.0000 </r>
       <r>   14.7760    0.0000 </r>
       <r>   15.0815    0.0000 </r>
       <r>   16.3801    0.0000 </r>
       <r>   16.4998    0.0000 </r>
      </set>
      <set comment="kpoint 17">
       <r>   -3.9434    1.0000 </r>
       <r>   -2.8154    1.0000 </r>
       <r>   -2.8154    1.0000 </r>
       <r>   -2.8154    1.0000 </r>
       <r>    1.1096    1.0000 </r>
       <r>    1.1096    1.0000 </r>
       <r>    1.1096    1.0000 </r>
       <r>    2.2193    1.0000 </r>
       <r>    3.3988    1.0000 </r>
       <r>    3.3988    1.0000 </r>
       <r>    3.3988    1.0000 </r>
       <r>    3.8686    1.0000 </r>
       <r>    3.8686    1.0000 </r>
       <r>    3.8875    1.0000 </r>
       <r>    3.8875    1.0000 </r>
       <r>    3.8875    1.0000 </r>
       <r>    8.9395    0.0000 </r>
       <r>    8.9395    0.0000 </r>
       <r>    8.9395    0.0000 </r>
       <r>    9.6213    0.0000 </r>
       <r>    9.6213    0.0000 </r>
       <r>   10.0127    0.0000 </r>
       <r>   11.4588    0.0000 </r>
       <r>   11.4588    0.0000 </r>
       <r>   11.4588    0.0000 </r>
       <r>   12.0622    0.0000 </r>
       <r>   12.0622    0.0000 </r>
       <r>   12.0622    0.0000 </r>
       <r>   15.5948    0.0000 </r>
       <r>   15.5949    0.0000 </r>
       <r>   15.7540    0.0000 </r>
       <r>   15.7558    0.0000 </r>
       <r>   15.7598    0.0000 </r>
       <r>   15.7609    0.0000 </r>
      </set>
      <set comment="kpoint 18">
       <r>   -3.3949    1.0000 </r>
       <r>   -2.9454    1.0000 </r>
       <r>   -2.4835    1.0000 </r>
       <r>   -2.4835    1.0000 </r>
       <r>    0.6688    1.0000 </r>
       <r>    0.6688    1.0000 </r>
       <r>    1.0438    1.0000 </r>
       <r>    1.5093    1.0000 </r>
       <r>    3.3420    1.0000 </r>
       <r>    3.3420    1.0000 </r>
       <r>    3.3604    1.0000 </r>
       <r>    3.4871    1.0000 </r>
       <r>    3.5392    1.0000 </r>
       <r>    3.5392    1.0000 </r>
       <r>    3.7503    1.0000 </r>
       <r>    3.7625    1.0000 </r>
       <r>    9.1130    0.0000 </r>
       <r>    9.3906    0.0000 </r>
       <r>    9.9392    0.0000 </r>
       <r>    9.9392    0.0000 </r>
       <r>   10.5210    0.0000 </r>
       <r>   10.8750    0.0000 </r>
       <r>   11.0111    0.0000 </r>
       <r>   11.0111    0.0000 </r>
       <r>   11.2070    0.0000 </r>
       <r>   11.7871    0.0000 </r>
       <r>   11.9210    0.0000 </r>
       <r>   11.9210    0.0000 </r>
       <r>   15.5756    0.0000 </r>
       <r>   15.5756    0.0000 </r>
       <r>   15.5924    0.0000 </r>
       <r>   15.7059    0.0000 </r>
       <r>   15.7394    0.0000 </r>
       <r>   16.0506    0.0000 </r>
      </set>
      <set comment="kpoint 19">
       <r>   -2.8704    1.0000 </r>
       <r>   -2.4858    1.0000 </r>
       <r>   -2.4858    1.0000 </r>
       <r>   -2.2773    1.0000 </r>
       <r>    0.3271    1.0000 </r>
       <r>    0.5166    1.0000 </r>
       <r>    0.5166    1.0000 </r>
       <r>    0.8957    1.0000 </r>
       <r>    3.2430    1.0000 </r>
       <r>    3.2430    1.0000 </r>
       <r>    3.2952    1.0000 </r>
       <r>    3.2988    1.0000 </r>
       <r>    3.3026    1.0000 </r>
       <r>    3.4212    1.0000 </r>
       <r>    3.4212    1.0000 </r>
       <r>    3.4603    1.0000 </r>
       <r>   10.0970    0.0000 </r>
       <r>   10.0970    0.0000 </r>
       <r>   10.2641    0.0000 </r>
       <r>   10.4622    0.0000 </r>
       <r>   10.5977    0.0000 </r>
       <r>   10.9382    0.0000 </r>
       <r>   11.0935    0.0000 </r>
       <r>   11.0935    0.0000 </r>
       <r>   11.3938    0.0000 </r>
       <r>   11.7264    0.0000 </r>
       <r>   11.8139    0.0000 </r>
       <r>   11.8139    0.0000 </r>
       <r>   15.1540    0.0000 </r>
       <r>   15.1540    0.0000 </r>
       <r>   15.1732    0.0000 </r>
       <r>   15.4590    0.0000 </r>
       <r>   16.4939    0.0000 </r>
       <r>   16.6616    0.0000 </r>
      </set>
      <set comment="kpoint 20">
       <r>   -2.3726    1.0000 </r>
       <r>   -2.0926    1.0000 </r>
       <r>   -2.0926    1.0000 </r>
       <r>   -2.0926    1.0000 </r>
       <r>    0.0342    1.0000 </r>
       <r>    0.0342    1.0000 </r>
       <r>    0.0342    1.0000 </r>
       <r>    0.3144    1.0000 </r>
       <r>    3.1395    1.0000 </r>
       <r>    3.1395    1.0000 </r>
       <r>    3.1395    1.0000 </r>
       <r>    3.1838    1.0000 </r>
       <r>    3.1838    1.0000 </r>
       <r>    3.1880    1.0000 </r>
       <r>    3.1880    1.0000 </r>
       <r>    3.1880    1.0000 </r>
       <r>   10.7733    0.0000 </r>
       <r>   10.7733    0.0000 </r>
       <r>   10.7733    0.0000 </r>
       <r>   10.9114    0.0000 </r>
       <r>   10.9114    0.0000 </r>
       <r>   11.1720    0.0000 </r>
       <r>   11.1720    0.0000 </r>
       <r>   11.1720    0.0000 </r>
       <r>   11.5322    0.0000 </r>
       <r>   12.0044    0.0000 </r>
       <r>   12.0044    0.0000 </r>
       <r>   12.0044    0.0000 </r>
       <r>   14.3049    0.0000 </r>
       <r>   14.3049    0.0000 </r>
       <r>   14.3049    0.0000 </r>
       <r>   14.5967    0.0000 </r>
       <r>   17.8403    0.0000 </r>
       <r>   17.8433    0.0000 </r>
      </set>
     </set>
    </set>
   </array>
  </eigenvalues>
  <separator name="orbital magnetization" >
   <v name="MAGDIPOLOUT">      0.00000000      0.00000000      0.00000000</v>
  </separator>
  <dos>
   <i name="efermi">      8.34804140 </i>
   <total>
    <array>
     <dimension dim="1">gridpoints</dimension>
     <dimension dim="2">spin</dimension>
     <field>energy</field>
     <field>total</field>
     <field>integrated</field>
     <set>
      <set comment="spin 1">
       <r>    -7.2997     0.0000     0.0000 </r>
       <r>    -7.2119     0.0000     0.0000 </r>
       <r>    -7.1241     0.0000     0.0000 </r>
       <r>    -7.0363     0.0000     0.0000 </r>
       <r>    -6.9485     0.0000     0.0000 </r>
       <r>    -6.8607     0.0000     0.0000 </r>
       <r>    -6.7729     0.0000     0.0000 </r>
       <r>    -6.6851     0.0000     0.0000 </r>
       <r>    -6.5973     0.0000     0.0000 </r>
       <r>    -6.5095     0.0000     0.0000 </r>
       <r>    -6.4217     0.0000     0.0000 </r>
       <r>    -6.3339     0.0000     0.0000 </r>
       <r>    -6.2461     0.0000     0.0000 </r>
       <r>    -6.1583     0.0000     0.0000 </r>
       <r>    -6.0705     0.3559     0.0313 </r>
       <r>    -5.9827     0.0000     0.0312 </r>
       <r>    -5.8949     0.0000     0.0312 </r>
       <r>    -5.8071     1.0679     0.1250 </r>
       <r>    -5.7193     0.0000     0.1250 </r>
       <r>    -5.6315     0.0000     0.1250 </r>
       <r>    -5.5437     1.0678     0.2188 </r>
       <r>    -5.4559     0.0000     0.2188 </r>
       <r>    -5.3681    -0.0329     0.2159 </r>
       <r>    -5.2803     1.4566     0.3438 </r>
       <r>    -5.1925     0.0000     0.3438 </r>
       <r>    -5.1047     0.1560     0.3574 </r>
       <r>    -5.0169     0.0000     0.5312 </r>
       <r>    -4.9291     0.0000     0.5312 </r>
       <r>    -4.8413     1.0191     0.6207 </r>
       <r>    -4.7535     1.1049     0.7220 </r>
       <r>    -4.6657     0.0000     0.7187 </r>
       <r>    -4.5779     1.0678     0.8125 </r>
       <r>    -4.4901     2.1368     1.0001 </r>
       <r>    -4.4022    -0.0377     0.9967 </r>
       <r>    -4.3144     1.1054     1.0937 </r>
       <r>    -4.2266     2.1355     1.2813 </r>
       <r>    -4.1388     0.0000     1.2812 </r>
       <r>    -4.0510     2.3012     1.4833 </r>
       <r>    -3.9632     4.2681     1.9372 </r>
       <r>    -3.8754     0.3581     1.9687 </r>
       <r>    -3.7876     5.9245     2.4889 </r>
       <r>    -3.6998     0.0000     2.8125 </r>
       <r>    -3.6120     1.0590     2.9055 </r>
       <r>    -3.5242     6.9202     3.5131 </r>
       <r>    -3.4364     2.1802     3.7539 </r>
       <r>    -3.3486     6.1686     4.2916 </r>
       <r>    -3.2608     3.1864     4.6860 </r>
       <r>    -3.1730     4.3751     5.0652 </r>
       <r>    -3.0852     6.4200     5.6261 </r>
       <r>    -2.9974     3.2454     5.9097 </r>
       <r>    -2.9096     4.2701     6.2812 </r>
       <r>    -2.8218     5.7546     6.7864 </r>
       <r>    -2.7340     2.2090     7.1249 </r>
       <r>    -2.6462     2.1372     7.3125 </r>
       <r>    -2.5584     1.0678     7.4063 </r>
       <r>    -2.4706     4.4030     7.7928 </r>
       <r>    -2.3828    -0.0097     7.7804 </r>
       <r>    -2.2950     0.3489     7.8110 </r>
       <r>    -2.2072     1.0844     7.9062 </r>
       <r>    -2.1194    -0.0005     7.9062 </r>
       <r>    -2.0316     1.0683     8.0000 </r>
       <r>    -1.9438     0.0000     8.0000 </r>
       <r>    -1.8560     0.0000     8.0000 </r>
       <r>    -1.7682     0.0000     8.0000 </r>
       <r>    -1.6804     0.0000     8.0000 </r>
       <r>    -1.5926     0.0000     8.0000 </r>
       <r>    -1.5048     0.0000     8.0000 </r>
       <r>    -1.4170     0.0000     8.0000 </r>
       <r>    -1.3292     0.0000     8.0000 </r>
       <r>    -1.2414     0.0000     8.0000 </r>
       <r>    -1.1536     0.0000     8.0000 </r>
       <r>    -1.0658     0.0000     8.0000 </r>
       <r>    -0.9780     0.0000     8.0000 </r>
       <r>    -0.8902     0.0000     8.0000 </r>
       <r>    -0.8024     0.0000     8.0000 </r>
       <r>    -0.7146     0.0000     8.0000 </r>
       <r>    -0.6268     0.0000     8.0000 </r>
       <r>    -0.5390     0.0000     8.0000 </r>
       <r>    -0.4512     0.0000     8.0000 </r>
       <r>    -0.3634     0.0000     8.0000 </r>
       <r>    -0.2756     0.0000     8.0000 </r>
       <r>    -0.1878     0.0000     8.0000 </r>
       <r>    -0.1000     0.0000     8.0000 </r>
       <r>    -0.0122     0.0000     8.0000 </r>
       <r>     0.0756     1.0678     8.0938 </r>
       <r>     0.1634     0.0000     8.0938 </r>
       <r>     0.2512     0.0000     8.0938 </r>
       <r>     0.3390     1.4619     8.2221 </r>
       <r>     0.4268     0.0000     8.2188 </r>
       <r>     0.5146     0.7096     8.2811 </r>
       <r>     0.6024     0.0000     8.4062 </r>
       <r>     0.6902     2.1460     8.5947 </r>
       <r>     0.7780     0.0000     8.5938 </r>
       <r>     0.8658     1.0972     8.6901 </r>
       <r>     0.9536     1.0679     8.7812 </r>
       <r>     1.0414     0.3265     8.8099 </r>
       <r>     1.1292     3.2125     9.1569 </r>
       <r>     1.2170     2.8249     9.4041 </r>
       <r>     1.3048     1.1039     9.6250 </r>
       <r>     1.3926     0.0000     9.6250 </r>
       <r>     1.4804     3.2033     9.9063 </r>
       <r>     1.5682     6.0762    10.4397 </r>
       <r>     1.6560     4.1013    10.8289 </r>
       <r>     1.7438     0.1714    10.8588 </r>
       <r>     1.8316     1.0869    11.1267 </r>
       <r>     1.9194     2.1357    11.3125 </r>
       <r>     2.0072     2.0972    11.4966 </r>
       <r>     2.0950     4.5685    11.8946 </r>
       <r>     2.1828     2.1450    12.1571 </r>
       <r>     2.2706     6.8369    12.7565 </r>
       <r>     2.3584     0.3709    12.7826 </r>
       <r>     2.4462     3.2033    13.2188 </r>
       <r>     2.5340     1.4878    13.3494 </r>
       <r>     2.6218     0.1520    13.4196 </r>
       <r>     2.7096     3.2140    13.8750 </r>
       <r>     2.7974     2.1368    14.0626 </r>
       <r>     2.8852     1.0678    14.1563 </r>
       <r>     2.9730     3.1468    14.4325 </r>
       <r>     3.0608     2.1919    14.6250 </r>
       <r>     3.1486     1.0817    14.7200 </r>
       <r>     3.2364     4.0395    15.0733 </r>
       <r>     3.3242     6.3868    15.8108 </r>
       <r>     3.4120     4.2867    16.1860 </r>
       <r>     3.4998    15.9841    17.5862 </r>
       <r>     3.5876    20.4437    19.5727 </r>
       <r>     3.6754    10.4798    20.9435 </r>
       <r>     3.7632    13.4173    22.1462 </r>
       <r>     3.8510    14.7341    23.4735 </r>
       <r>     3.9388     8.1807    24.2173 </r>
       <r>     4.0266     9.6384    25.0626 </r>
       <r>     4.1144     5.3099    25.5287 </r>
       <r>     4.2022     9.7494    26.3847 </r>
       <r>     4.2901     5.3620    26.8458 </r>
       <r>     4.3779     6.7944    27.4402 </r>
       <r>     4.4657     5.6951    28.0000 </r>
       <r>     4.5535     3.2099    28.2818 </r>
       <r>     4.6413     3.2041    28.5626 </r>
       <r>     4.7291     0.0000    28.5625 </r>
       <r>     4.8169     3.2553    28.8483 </r>
       <r>     4.9047    -0.0242    28.8416 </r>
       <r>     4.9925     4.3071    29.2198 </r>
       <r>     5.0803     2.9811    29.4805 </r>
       <r>     5.1681     3.2406    29.7813 </r>
       <r>     5.2559     6.1827    30.3241 </r>
       <r>     5.3437     1.0728    30.4062 </r>
       <r>     5.4315     2.0820    30.5891 </r>
       <r>     5.5193     3.2722    30.8764 </r>
       <r>     5.6071     1.0677    30.9687 </r>
       <r>     5.6949     2.1356    31.1563 </r>
       <r>     5.7827     0.0000    31.1562 </r>
       <r>     5.8705    -0.0373    31.1530 </r>
       <r>     5.9583     2.1728    31.3438 </r>
       <r>     6.0461     1.0758    31.4382 </r>
       <r>     6.1339     1.0667    31.5312 </r>
       <r>     6.2217     1.0688    31.6250 </r>
       <r>     6.3095     0.0817    31.6322 </r>
       <r>     6.3973     2.1690    31.9092 </r>
       <r>     6.4851     2.1631    32.0962 </r>
       <r>     6.5729     1.0736    32.1864 </r>
       <r>     6.6607     1.4363    32.3125 </r>
       <r>     6.7485     1.0090    32.4011 </r>
       <r>     6.8363     1.0750    32.5006 </r>
       <r>     6.9241     0.2395    32.5210 </r>
       <r>     7.0119     0.0000    32.5625 </r>
       <r>     7.0997     0.0000    32.5625 </r>
       <r>     7.1875     4.4027    32.9491 </r>
       <r>     7.2753     3.2105    33.3131 </r>
       <r>     7.3631     5.3774    33.7846 </r>
       <r>     7.4509     1.0683    33.8750 </r>
       <r>     7.5387     1.0704    33.9690 </r>
       <r>     7.6265     2.1045    34.1535 </r>
       <r>     7.7143     1.8107    34.3125 </r>
       <r>     7.8021     1.0678    34.4063 </r>
       <r>     7.8899     0.0000    34.4062 </r>
       <r>     7.9777     0.0000    34.4062 </r>
       <r>     8.0655    -0.0043    34.4059 </r>
       <r>     8.1533     1.8303    34.5666 </r>
       <r>     8.2411     5.2049    35.1445 </r>
       <r>     8.3289     7.1882    35.9683 </r>
       <r>     8.4167     2.4946    36.1874 </r>
       <r>     8.5045     3.2220    36.4702 </r>
       <r>     8.5923     1.0678    36.5625 </r>
       <r>     8.6801     1.0610    36.6557 </r>
       <r>     8.7679     0.5717    36.8002 </r>
       <r>     8.8557     2.1863    37.0343 </r>
       <r>     8.9435     0.8657    37.1073 </r>
       <r>     9.0313     0.5061    37.1694 </r>
       <r>     9.1191     1.9978    37.3942 </r>
       <r>     9.2069     2.5350    37.6280 </r>
       <r>     9.2947     1.0948    37.7211 </r>
       <r>     9.3825     9.6986    38.5727 </r>
       <r>     9.4703     9.2265    39.3719 </r>
       <r>     9.5581     0.2065    39.4244 </r>
       <r>     9.6459     2.8707    39.7501 </r>
       <r>     9.7337    -0.0274    39.7476 </r>
       <r>     9.8215     2.1629    39.9375 </r>
       <r>     9.9093     5.4083    40.4124 </r>
       <r>     9.9971     4.9749    40.8429 </r>
       <r>    10.0849     1.3575    40.9621 </r>
       <r>    10.1727     7.5138    41.6218 </r>
       <r>    10.2605     5.5077    42.1054 </r>
       <r>    10.3483    -0.0377    42.1842 </r>
       <r>    10.4361     3.2389    42.4686 </r>
       <r>    10.5239     4.9839    42.9063 </r>
       <r>    10.6117     9.9202    43.8019 </r>
       <r>    10.6995     2.9485    44.1302 </r>
       <r>    10.7873     4.3341    44.5368 </r>
       <r>    10.8751     2.6853    44.8608 </r>
       <r>    10.9629     4.6688    45.3162 </r>
       <r>    11.0507     9.9949    46.4983 </r>
       <r>    11.1385     6.5143    47.1325 </r>
       <r>    11.2263     2.1450    47.4071 </r>
       <r>    11.3141     4.2391    47.7783 </r>
       <r>    11.4019     3.1716    48.0568 </r>
       <r>    11.4897     8.5616    48.8091 </r>
       <r>    11.5775    12.0691    49.8688 </r>
       <r>    11.6653     7.4755    50.5301 </r>
       <r>    11.7531     4.9192    50.9620 </r>
       <r>    11.8409     9.1867    51.8940 </r>
       <r>    11.9287     5.3181    52.4043 </r>
       <r>    12.0165     5.4829    52.9721 </r>
       <r>    12.1043    10.1486    53.8598 </r>
       <r>    12.1921     5.5806    54.3904 </r>
       <r>    12.2799     5.3158    54.9377 </r>
       <r>    12.3677     6.8867    55.5420 </r>
       <r>    12.4555     9.6767    56.6270 </r>
       <r>    12.5433    11.2694    57.7986 </r>
       <r>    12.6311     3.2033    58.2188 </r>
       <r>    12.7189     2.3923    58.4288 </r>
       <r>    12.8067     0.0000    58.4688 </r>
       <r>    12.8946    -0.1075    58.4593 </r>
       <r>    12.9824     5.4822    58.9407 </r>
       <r>    13.0702     2.1060    59.1224 </r>
       <r>    13.1580     4.3031    59.5000 </r>
       <r>    13.2458    -0.0372    59.4967 </r>
       <r>    13.3336     3.2404    59.7812 </r>
       <r>    13.4214     2.1407    59.9692 </r>
       <r>    13.5092     2.1356    60.1563 </r>
       <r>    13.5970     4.2711    60.5313 </r>
       <r>    13.6848     0.1275    60.5424 </r>
       <r>    13.7726     3.2074    60.9066 </r>
       <r>    13.8604     1.0663    60.9999 </r>
       <r>    13.9482     2.1369    61.1875 </r>
       <r>    14.0360    -0.0002    61.1875 </r>
       <r>    14.1238     4.2713    61.5625 </r>
       <r>    14.2116    -0.0007    61.5624 </r>
       <r>    14.2994     5.5075    62.0460 </r>
       <r>    14.3872     4.2231    62.4958 </r>
       <r>    14.4750     2.1805    62.6872 </r>
       <r>    14.5628     2.1014    62.8717 </r>
       <r>    14.6506     1.4609    63.0000 </r>
       <r>    14.7384     2.1894    63.1922 </r>
       <r>    14.8262     2.1355    63.3750 </r>
       <r>    14.9140     0.0965    63.3835 </r>
       <r>    15.0018     2.1355    63.7500 </r>
       <r>    15.0896     3.0768    64.0201 </r>
       <r>    15.1774     5.5014    64.5143 </r>
       <r>    15.2652     2.7014    64.7678 </r>
       <r>    15.3530     3.1819    65.0919 </r>
       <r>    15.4408     1.0525    65.1862 </r>
       <r>    15.5286     2.1139    65.3718 </r>
       <r>    15.6164     6.0927    65.9067 </r>
       <r>    15.7042     0.3806    65.9397 </r>
       <r>    15.7920     2.4915    66.2188 </r>
       <r>    15.8798     1.0992    66.3153 </r>
       <r>    15.9676     1.4162    66.4368 </r>
       <r>    16.0554     2.1224    66.6238 </r>
       <r>    16.1432     1.0788    66.8125 </r>
       <r>    16.2310     4.9309    67.2454 </r>
       <r>    16.3188     0.0000    67.3750 </r>
       <r>    16.4066     1.0684    67.4688 </r>
       <r>    16.4944     0.6877    67.5291 </r>
       <r>    16.5822     0.0000    67.6562 </r>
       <r>    16.6700     1.0663    67.7499 </r>
       <r>    16.7578     0.0000    67.7500 </r>
       <r>    16.8456     0.0000    67.7500 </r>
       <r>    16.9334     0.0000    67.7500 </r>
       <r>    17.0212     1.0678    67.8438 </r>
       <r>    17.1090     1.1020    67.9405 </r>
       <r>    17.1968     0.0000    67.9375 </r>
       <r>    17.2846     0.0000    67.9375 </r>
       <r>    17.3724     0.0000    67.9375 </r>
       <r>    17.4602     0.0000    67.9375 </r>
       <r>    17.5480     0.0000    67.9375 </r>
       <r>    17.6358     0.0000    67.9375 </r>
       <r>    17.7236     0.0000    67.9375 </r>
       <r>    17.8114    -0.0001    67.9375 </r>
       <r>    17.8992     0.7119    68.0000 </r>
       <r>    17.9870     0.0000    68.0000 </r>
       <r>    18.0748     0.0000    68.0000 </r>
       <r>    18.1626     0.0000    68.0000 </r>
       <r>    18.2504     0.0000    68.0000 </r>
       <r>    18.3382     0.0000    68.0000 </r>
       <r>    18.4260     0.0000    68.0000 </r>
       <r>    18.5138     0.0000    68.0000 </r>
       <r>    18.6016     0.0000    68.0000 </r>
       <r>    18.6894     0.0000    68.0000 </r>
       <r>    18.7772     0.0000    68.0000 </r>
       <r>    18.8650     0.0000    68.0000 </r>
       <r>    18.9528     0.0000    68.0000 </r>
       <r>    19.0406     0.0000    68.0000 </r>
      </set>
     </set>
    </array>
   </total>
  </dos>
 </calculation>
 <structure name="finalpos" >
  <crystal>
   <varray name="basis" >
    <v>       4.47500000       0.00000000       0.00000000 </v>
    <v>       0.00000000       4.47500000       0.00000000 </v>
    <v>       0.00000000       0.00000000       4.47500000 </v>
   </varray>
   <i name="volume">     89.61467187 </i>
   <varray name="rec_basis" >
    <v>       0.22346369       0.00000000       0.00000000 </v>
    <v>       0.00000000       0.22346369       0.00000000 </v>
    <v>       0.00000000       0.00000000       0.22346369 </v>
   </varray>
  </crystal>
  <varray name="positions" >
   <v>       0.00000000       0.00000000       0.50000000 </v>
   <v>       0.00000000       0.50000000       0.00000000 </v>
   <v>       0.50000000       0.00000000       0.00000000 </v>
   <v>       0.50000000       0.50000000       0.50000000 </v>
   <v>       0.00000000       0.00000000       0.00000000 </v>
   <v>       0.00000000       0.50000000       0.50000000 </v>
   <v>       0.50000000       0.00000000       0.50000000 </v>
   <v>       0.50000000       0.50000000       0.00000000 </v>
  </varray>
 </structure>
</modeling>
