   3   3   0   0
  0.1706667E+03  0.8000000E-09  0.8000000E-09  0.8000000E-09  0.5000000E-15
  1.000000000000000E-004
  CAR 
 unknown system                          
      1.85631087    -30.78553233  301     -7.60897361      1.00000000
    -30.786  0.0000E+00  0.0000E+00
    -30.677  0.0000E+00  0.0000E+00
    -30.568  0.0000E+00  0.0000E+00
    -30.459  0.0000E+00  0.0000E+00
    -30.350  0.0000E+00  0.0000E+00
    -30.242  0.0000E+00  0.0000E+00
    -30.133  0.0000E+00  0.0000E+00
    -30.024  0.0000E+00  0.0000E+00
    -29.915  0.1224E-14  0.1332E-15
    -29.806  0.4846E-12  0.5286E-13
    -29.697  0.1034E-09  0.1131E-10
    -29.589  0.1235E-07  0.1355E-08
    -29.480  0.8262E-06  0.9125E-07
    -29.371  0.3105E-04  0.3469E-05
    -29.262  0.6568E-03  0.7493E-04
    -29.153  0.7842E-02  0.9282E-03
    -29.045  0.5299E-01  0.6693E-02
    -28.936  0.2031E+00  0.2879E-01
    -28.827  0.4424E+00  0.7692E-01
    -28.718  0.5484E+00  0.1366E+00
    -28.609  0.3870E+00  0.1787E+00
    -28.501  0.1554E+00  0.1956E+00
    -28.392  0.3545E-01  0.1995E+00
    -28.283  0.4851E-02  0.2000E+00
    -28.174  0.4153E-02  0.2004E+00
    -28.065  0.3087E-01  0.2038E+00
    -27.957  0.1414E+00  0.2192E+00
    -27.848  0.3679E+00  0.2592E+00
    -27.739  0.5446E+00  0.3185E+00
    -27.630  0.4590E+00  0.3684E+00
    -27.521  0.2201E+00  0.3924E+00
    -27.413  0.6002E-01  0.3989E+00
    -27.304  0.9283E-02  0.3999E+00
    -27.195  0.8127E-03  0.4000E+00
    -27.086  0.4017E-04  0.4000E+00
    -26.977  0.1118E-05  0.4000E+00
    -26.869  0.1747E-07  0.4000E+00
    -26.760  0.1531E-09  0.4000E+00
    -26.651  0.7504E-12  0.4000E+00
    -26.542  0.2041E-14  0.4000E+00
    -26.433  0.0000E+00  0.4000E+00
    -26.324  0.0000E+00  0.4000E+00
    -26.216  0.0000E+00  0.4000E+00
    -26.107  0.0000E+00  0.4000E+00
    -25.998  0.0000E+00  0.4000E+00
    -25.889  0.0000E+00  0.4000E+00
    -25.780  0.0000E+00  0.4000E+00
    -25.672  0.0000E+00  0.4000E+00
    -25.563  0.0000E+00  0.4000E+00
    -25.454  0.0000E+00  0.4000E+00
    -25.345  0.0000E+00  0.4000E+00
    -25.236  0.0000E+00  0.4000E+00
    -25.128  0.0000E+00  0.4000E+00
    -25.019  0.0000E+00  0.4000E+00
    -24.910  0.0000E+00  0.4000E+00
    -24.801  0.0000E+00  0.4000E+00
    -24.692  0.0000E+00  0.4000E+00
    -24.584  0.0000E+00  0.4000E+00
    -24.475  0.0000E+00  0.4000E+00
    -24.366  0.0000E+00  0.4000E+00
    -24.257  0.0000E+00  0.4000E+00
    -24.148  0.0000E+00  0.4000E+00
    -24.040  0.0000E+00  0.4000E+00
    -23.931  0.0000E+00  0.4000E+00
    -23.822  0.0000E+00  0.4000E+00
    -23.713  0.0000E+00  0.4000E+00
    -23.604  0.0000E+00  0.4000E+00
    -23.496  0.0000E+00  0.4000E+00
    -23.387  0.0000E+00  0.4000E+00
    -23.278  0.0000E+00  0.4000E+00
    -23.169  0.0000E+00  0.4000E+00
    -23.060  0.0000E+00  0.4000E+00
    -22.951  0.0000E+00  0.4000E+00
    -22.843  0.0000E+00  0.4000E+00
    -22.734  0.0000E+00  0.4000E+00
    -22.625  0.0000E+00  0.4000E+00
    -22.516  0.0000E+00  0.4000E+00
    -22.407  0.0000E+00  0.4000E+00
    -22.299  0.0000E+00  0.4000E+00
    -22.190  0.0000E+00  0.4000E+00
    -22.081  0.0000E+00  0.4000E+00
    -21.972  0.0000E+00  0.4000E+00
    -21.863  0.0000E+00  0.4000E+00
    -21.755  0.0000E+00  0.4000E+00
    -21.646  0.0000E+00  0.4000E+00
    -21.537  0.0000E+00  0.4000E+00
    -21.428  0.0000E+00  0.4000E+00
    -21.319  0.0000E+00  0.4000E+00
    -21.211  0.0000E+00  0.4000E+00
    -21.102  0.0000E+00  0.4000E+00
    -20.993  0.0000E+00  0.4000E+00
    -20.884  0.0000E+00  0.4000E+00
    -20.775  0.0000E+00  0.4000E+00
    -20.667  0.0000E+00  0.4000E+00
    -20.558  0.0000E+00  0.4000E+00
    -20.449  0.0000E+00  0.4000E+00
    -20.340  0.0000E+00  0.4000E+00
    -20.231  0.0000E+00  0.4000E+00
    -20.123  0.0000E+00  0.4000E+00
    -20.014  0.0000E+00  0.4000E+00
    -19.905  0.0000E+00  0.4000E+00
    -19.796  0.0000E+00  0.4000E+00
    -19.687  0.0000E+00  0.4000E+00
    -19.578  0.0000E+00  0.4000E+00
    -19.470  0.0000E+00  0.4000E+00
    -19.361  0.0000E+00  0.4000E+00
    -19.252  0.0000E+00  0.4000E+00
    -19.143  0.0000E+00  0.4000E+00
    -19.034  0.0000E+00  0.4000E+00
    -18.926  0.0000E+00  0.4000E+00
    -18.817  0.0000E+00  0.4000E+00
    -18.708  0.0000E+00  0.4000E+00
    -18.599  0.0000E+00  0.4000E+00
    -18.490  0.0000E+00  0.4000E+00
    -18.382  0.0000E+00  0.4000E+00
    -18.273  0.0000E+00  0.4000E+00
    -18.164  0.0000E+00  0.4000E+00
    -18.055  0.0000E+00  0.4000E+00
    -17.946  0.0000E+00  0.4000E+00
    -17.838  0.0000E+00  0.4000E+00
    -17.729  0.0000E+00  0.4000E+00
    -17.620  0.0000E+00  0.4000E+00
    -17.511  0.0000E+00  0.4000E+00
    -17.402  0.0000E+00  0.4000E+00
    -17.294  0.0000E+00  0.4000E+00
    -17.185  0.0000E+00  0.4000E+00
    -17.076  0.0000E+00  0.4000E+00
    -16.967  0.0000E+00  0.4000E+00
    -16.858  0.0000E+00  0.4000E+00
    -16.750  0.0000E+00  0.4000E+00
    -16.641  0.0000E+00  0.4000E+00
    -16.532  0.0000E+00  0.4000E+00
    -16.423  0.0000E+00  0.4000E+00
    -16.314  0.0000E+00  0.4000E+00
    -16.206  0.0000E+00  0.4000E+00
    -16.097  0.0000E+00  0.4000E+00
    -15.988  0.0000E+00  0.4000E+00
    -15.879  0.0000E+00  0.4000E+00
    -15.770  0.0000E+00  0.4000E+00
    -15.661  0.0000E+00  0.4000E+00
    -15.553  0.0000E+00  0.4000E+00
    -15.444  0.0000E+00  0.4000E+00
    -15.335  0.0000E+00  0.4000E+00
    -15.226  0.0000E+00  0.4000E+00
    -15.117  0.0000E+00  0.4000E+00
    -15.009  0.0000E+00  0.4000E+00
    -14.900  0.0000E+00  0.4000E+00
    -14.791  0.0000E+00  0.4000E+00
    -14.682  0.0000E+00  0.4000E+00
    -14.573  0.0000E+00  0.4000E+00
    -14.465  0.2490E-13  0.4000E+00
    -14.356  0.7157E-11  0.4000E+00
    -14.247  0.1150E-08  0.4000E+00
    -14.138  0.1034E-06  0.4000E+00
    -14.029  0.5220E-05  0.4000E+00
    -13.921  0.1481E-03  0.4000E+00
    -13.812  0.2369E-02  0.4003E+00
    -13.703  0.2141E-01  0.4026E+00
    -13.594  0.1096E+00  0.4145E+00
    -13.485  0.3188E+00  0.4492E+00
    -13.377  0.5272E+00  0.5066E+00
    -13.268  0.4963E+00  0.5606E+00
    -13.159  0.2659E+00  0.5895E+00
    -13.050  0.8102E-01  0.5983E+00
    -12.941  0.1401E-01  0.5998E+00
    -12.833  0.1403E-02  0.6000E+00
    -12.724  0.8545E-03  0.6001E+00
    -12.615  0.1097E-01  0.6013E+00
    -12.506  0.8804E-01  0.6109E+00
    -12.397  0.4039E+00  0.6548E+00
    -12.288  0.1062E+01  0.7704E+00
    -12.180  0.1607E+01  0.9452E+00
    -12.071  0.1399E+01  0.1097E+01
    -11.962  0.7023E+00  0.1174E+01
    -11.853  0.2031E+00  0.1196E+01
    -11.744  0.3377E-01  0.1200E+01
    -11.636  0.3224E-02  0.1200E+01
    -11.527  0.1761E-03  0.1200E+01
    -11.418  0.5490E-05  0.1200E+01
    -11.309  0.9729E-07  0.1200E+01
    -11.200  0.9771E-09  0.1200E+01
    -11.092  0.5544E-11  0.1200E+01
    -10.983  0.1775E-13  0.1200E+01
    -10.874  0.0000E+00  0.1200E+01
    -10.765  0.0000E+00  0.1200E+01
    -10.656  0.0000E+00  0.1200E+01
    -10.548  0.0000E+00  0.1200E+01
    -10.439  0.0000E+00  0.1200E+01
    -10.330  0.0000E+00  0.1200E+01
    -10.221  0.0000E+00  0.1200E+01
    -10.112  0.0000E+00  0.1200E+01
    -10.004  0.0000E+00  0.1200E+01
     -9.895  0.0000E+00  0.1200E+01
     -9.786  0.1224E-14  0.1200E+01
     -9.677  0.5222E-12  0.1200E+01
     -9.568  0.1187E-09  0.1200E+01
     -9.460  0.1510E-07  0.1200E+01
     -9.351  0.1076E-05  0.1200E+01
     -9.242  0.4304E-04  0.1200E+01
     -9.133  0.9692E-03  0.1200E+01
     -9.024  0.1231E-01  0.1201E+01
     -8.915  0.8850E-01  0.1211E+01
     -8.807  0.3607E+00  0.1250E+01
     -8.698  0.8355E+00  0.1341E+01
     -8.589  0.1101E+01  0.1461E+01
     -8.480  0.8262E+00  0.1551E+01
     -8.371  0.3527E+00  0.1589E+01
     -8.263  0.8556E-01  0.1599E+01
     -8.154  0.1177E-01  0.1600E+01
     -8.045  0.9160E-03  0.1600E+01
     -7.936  0.4022E-04  0.1600E+01
     -7.827  0.9939E-06  0.1600E+01
     -7.719  0.1379E-07  0.1600E+01
     -7.610  0.1072E-09  0.1600E+01
     -7.501  0.4657E-12  0.1600E+01
     -7.392  0.1224E-14  0.1600E+01
     -7.283  0.0000E+00  0.1600E+01
     -7.175  0.0000E+00  0.1600E+01
     -7.066  0.0000E+00  0.1600E+01
     -6.957  0.0000E+00  0.1600E+01
     -6.848  0.0000E+00  0.1600E+01
     -6.739  0.0000E+00  0.1600E+01
     -6.631  0.0000E+00  0.1600E+01
     -6.522  0.0000E+00  0.1600E+01
     -6.413  0.0000E+00  0.1600E+01
     -6.304  0.0000E+00  0.1600E+01
     -6.195  0.0000E+00  0.1600E+01
     -6.087  0.0000E+00  0.1600E+01
     -5.978  0.0000E+00  0.1600E+01
     -5.869  0.0000E+00  0.1600E+01
     -5.760  0.0000E+00  0.1600E+01
     -5.651  0.0000E+00  0.1600E+01
     -5.543  0.0000E+00  0.1600E+01
     -5.434  0.0000E+00  0.1600E+01
     -5.325  0.0000E+00  0.1600E+01
     -5.216  0.0000E+00  0.1600E+01
     -5.107  0.0000E+00  0.1600E+01
     -4.998  0.0000E+00  0.1600E+01
     -4.890  0.0000E+00  0.1600E+01
     -4.781  0.0000E+00  0.1600E+01
     -4.672  0.0000E+00  0.1600E+01
     -4.563  0.0000E+00  0.1600E+01
     -4.454  0.0000E+00  0.1600E+01
     -4.346  0.0000E+00  0.1600E+01
     -4.237  0.0000E+00  0.1600E+01
     -4.128  0.0000E+00  0.1600E+01
     -4.019  0.0000E+00  0.1600E+01
     -3.910  0.0000E+00  0.1600E+01
     -3.802  0.0000E+00  0.1600E+01
     -3.693  0.0000E+00  0.1600E+01
     -3.584  0.0000E+00  0.1600E+01
     -3.475  0.0000E+00  0.1600E+01
     -3.366  0.0000E+00  0.1600E+01
     -3.258  0.0000E+00  0.1600E+01
     -3.149  0.0000E+00  0.1600E+01
     -3.040  0.0000E+00  0.1600E+01
     -2.931  0.0000E+00  0.1600E+01
     -2.822  0.0000E+00  0.1600E+01
     -2.714  0.0000E+00  0.1600E+01
     -2.605  0.0000E+00  0.1600E+01
     -2.496  0.0000E+00  0.1600E+01
     -2.387  0.0000E+00  0.1600E+01
     -2.278  0.0000E+00  0.1600E+01
     -2.170  0.0000E+00  0.1600E+01
     -2.061  0.0000E+00  0.1600E+01
     -1.952  0.1959E-13  0.1600E+01
     -1.843  0.5743E-11  0.1600E+01
     -1.734  0.9450E-09  0.1600E+01
     -1.625  0.8705E-07  0.1600E+01
     -1.517  0.4497E-05  0.1600E+01
     -1.408  0.1306E-03  0.1600E+01
     -1.299  0.2139E-02  0.1600E+01
     -1.190  0.1978E-01  0.1602E+01
     -1.081  0.1037E+00  0.1614E+01
     -0.973  0.3085E+00  0.1647E+01
     -0.864  0.5222E+00  0.1704E+01
     -0.755  0.5030E+00  0.1759E+01
     -0.646  0.2762E+00  0.1789E+01
     -0.537  0.9058E-01  0.1799E+01
     -0.429  0.5066E-01  0.1804E+01
     -0.320  0.1569E+00  0.1821E+01
     -0.211  0.3871E+00  0.1863E+01
     -0.102  0.5484E+00  0.1923E+01
      0.007  0.4424E+00  0.1971E+01
      0.115  0.2031E+00  0.1993E+01
      0.224  0.5299E-01  0.1999E+01
      0.333  0.7842E-02  0.2000E+01
      0.442  0.6568E-03  0.2000E+01
      0.551  0.3105E-04  0.2000E+01
      0.659  0.8262E-06  0.2000E+01
      0.768  0.1235E-07  0.2000E+01
      0.877  0.1034E-09  0.2000E+01
      0.986  0.4845E-12  0.2000E+01
      1.095  0.1224E-14  0.2000E+01
      1.203  0.0000E+00  0.2000E+01
      1.312  0.0000E+00  0.2000E+01
      1.421  0.0000E+00  0.2000E+01
      1.530  0.0000E+00  0.2000E+01
      1.639  0.0000E+00  0.2000E+01
      1.748  0.0000E+00  0.2000E+01
      1.856  0.0000E+00  0.2000E+01
