    3    3   10    1
  0.1706667E+03  0.8000000E-09  0.8000000E-09  0.8000000E-09  0.5000000E-15
  1.000000000000000E-004
  CAR 
 unknown system                          
   16    1   10
 
  0.0000000E+00  0.0000000E+00  0.0000000E+00  0.1000000E+01
   1      -28.785532
   2      -27.771999
   3      -13.388211
   4      -12.221724
   5      -12.221724
   6      -12.176925
   7       -8.644566
   8       -8.644566
   9       -0.871057
  10       -0.143689
