       N       E                     dE             d eps       ncg     rms          rms(c)
DAV:   1     0.108470853895E+03    0.10847E+03   -0.46414E+03    28   0.712E+02
DAV:   2    -0.133764217306E+02   -0.12185E+03   -0.12136E+03    38   0.194E+02
DAV:   3    -0.242045523656E+02   -0.10828E+02   -0.10824E+02    24   0.809E+01
DAV:   4    -0.245135103879E+02   -0.30896E+00   -0.30881E+00    32   0.132E+01
DAV:   5    -0.245152690538E+02   -0.17587E-02   -0.17469E-02    24   0.101E+00    0.792E+00
DAV:   6    -0.231145611028E+02    0.14007E+01   -0.63772E+00    24   0.218E+01    0.347E+00
DAV:   7    -0.230052063040E+02    0.10935E+00   -0.31184E-01    22   0.551E+00    0.197E+00
DAV:   8    -0.229534184121E+02    0.51788E-01   -0.24739E-01    22   0.451E+00    0.415E-01
DAV:   9    -0.229491626326E+02    0.42558E-02   -0.19458E-02    22   0.140E+00    0.187E-01
DAV:  10    -0.229512250412E+02   -0.20624E-02   -0.45957E-03    30   0.651E-01    0.882E-02
DAV:  11    -0.229550400505E+02   -0.38150E-02   -0.18060E-03    28   0.410E-01    0.691E-02
DAV:  12    -0.229574156368E+02   -0.23756E-02   -0.11290E-03    20   0.260E-01    0.175E-02
DAV:  13    -0.229589847871E+02   -0.15692E-02   -0.24437E-04    22   0.123E-01    0.137E-02
DAV:  14    -0.229590835441E+02   -0.98757E-04   -0.99456E-06    14   0.380E-02
   1 F= -.22959084E+02 E0= -.22959084E+02  d E =-.229591E+02
       N       E                     dE             d eps       ncg     rms          rms(c)
DAV:   1    -0.229547257065E+02    0.42591E-02   -0.84328E-01    20   0.108E+01    0.286E-01
DAV:   2    -0.229550352500E+02   -0.30954E-03   -0.20042E-02    24   0.147E+00    0.119E-01
DAV:   3    -0.229547103038E+02    0.32495E-03   -0.64977E-04    30   0.287E-01    0.587E-02
DAV:   4    -0.229546864935E+02    0.23810E-04   -0.39293E-04    22   0.203E-01
   2 F= -.22954686E+02 E0= -.22954686E+02  d E =0.439705E-02
       N       E                     dE             d eps       ncg     rms          rms(c)
DAV:   1    -0.229596106925E+02   -0.49004E-02   -0.53519E-01    20   0.862E+00    0.227E-01
DAV:   2    -0.229597948801E+02   -0.18419E-03   -0.12814E-02    24   0.117E+00    0.908E-02
DAV:   3    -0.229595897402E+02    0.20514E-03   -0.37853E-04    22   0.223E-01    0.451E-02
DAV:   4    -0.229595743142E+02    0.15426E-04   -0.29244E-04    22   0.174E-01
   3 F= -.22959574E+02 E0= -.22959574E+02  d E =-.490770E-03
