<?xml version="1.0" encoding="ISO-8859-1"?>
<modeling>
 <generator>
  <i name="program" type="string">vasp </i>
  <i name="version" type="string">5.2.12  </i>
  <i name="subversion" type="string">11Nov11 complex                                                      parallel </i>
  <i name="platform" type="string">LinuxIFC </i>
  <i name="date" type="string">2012 10 12 </i>
  <i name="time" type="string">15:43:01 </i>
 </generator>
 <incar>
  <i type="string" name="PREC">normal</i>
  <i type="int" name="IBRION">     2</i>
  <i type="int" name="NSW">    10</i>
  <i name="ENCUT">    350.00000000</i>
  <i type="int" name="NBANDS">    10</i>
  <i type="int" name="ISMEAR">     0</i>
 </incar>
 <kpoints>
  <generation param="Monkhorst-Pack">
   <v type="int" name="divisions">       1        1        1 </v>
   <v name="usershift">      0.00000000       0.00000000       0.00000000 </v>
   <v name="genvec1">      1.00000000       0.00000000       0.00000000 </v>
   <v name="genvec2">      0.00000000       1.00000000       0.00000000 </v>
   <v name="genvec3">      0.00000000       0.00000000       1.00000000 </v>
   <v name="shift">      0.00000000       0.00000000       0.00000000 </v>
  </generation>
  <varray name="kpointlist" >
   <v>       0.00000000       0.00000000       0.00000000 </v>
  </varray>
  <varray name="weights" >
   <v>       1.00000000 </v>
  </varray>
 </kpoints>
 <parameters>
  <separator name="general" >
   <i type="string" name="SYSTEM">unknown system</i>
   <i type="logical" name="LCOMPAT"> F  </i>
  </separator>
  <separator name="electronic" >
   <i type="string" name="PREC">normal</i>
   <i name="ENMAX">    350.00000000</i>
   <i name="ENAUG">    644.87300000</i>
   <i name="EDIFF">      0.00010000</i>
   <i type="int" name="IALGO">    38</i>
   <i type="int" name="IWAVPR">    11</i>
   <i type="int" name="NBANDS">    10</i>
   <i name="NELECT">     16.00000000</i>
   <i type="int" name="TURBO">     0</i>
   <i type="int" name="IRESTART">     0</i>
   <i type="int" name="NREBOOT">     0</i>
   <i type="int" name="NMIN">     0</i>
   <i name="EREF">      0.00000000</i>
   <separator name="electronic smearing" >
    <i type="int" name="ISMEAR">     0</i>
    <i name="SIGMA">      0.20000000</i>
    <i name="KSPACING">      0.50000000</i>
    <i type="logical" name="KGAMMA"> T  </i>
   </separator>
   <separator name="electronic projectors" >
    <i type="logical" name="LREAL"> F  </i>
    <v name="ROPT">      0.00000000      0.00000000</v>
    <i type="int" name="LMAXPAW">  -100</i>
    <i type="int" name="LMAXMIX">     2</i>
    <i type="logical" name="NLSPLINE"> F  </i>
   </separator>
   <separator name="electronic startup" >
    <i type="int" name="ISTART">     0</i>
    <i type="int" name="ICHARG">     2</i>
    <i type="int" name="INIWAV">     1</i>
   </separator>
   <separator name="electronic spin" >
    <i type="int" name="ISPIN">     1</i>
    <i type="logical" name="LNONCOLLINEAR"> F  </i>
    <v name="MAGMOM">      1.00000000      1.00000000      1.00000000</v>
    <i name="NUPDOWN">     -1.00000000</i>
    <i type="logical" name="LSORBIT"> F  </i>
    <v name="SAXIS">      0.00000000      0.00000000      1.00000000</v>
    <i type="logical" name="LSPIRAL"> F  </i>
    <v name="QSPIRAL">      0.00000000      0.00000000      0.00000000</v>
    <i type="logical" name="LZEROZ"> F  </i>
   </separator>
   <separator name="electronic exchange-correlation" >
    <i type="logical" name="LASPH"> F  </i>
    <i type="logical" name="LMETAGGA"> F  </i>
   </separator>
   <separator name="electronic convergence" >
    <i type="int" name="NELM">    60</i>
    <i type="int" name="NELMDL">    -5</i>
    <i type="int" name="NELMIN">     2</i>
    <i name="ENINI">    350.00000000</i>
    <separator name="electronic convergence detail" >
     <i type="logical" name="LDIAG"> T  </i>
     <i type="logical" name="LSUBROT"> T  </i>
     <i name="WEIMIN">      0.00100000</i>
     <i name="EBREAK">      0.00000250</i>
     <i name="DEPER">      0.30000000</i>
     <i type="int" name="NRMM">     4</i>
     <i name="TIME">      0.40000000</i>
    </separator>
   </separator>
   <separator name="electronic mixer" >
    <i name="AMIX">      0.40000000</i>
    <i name="BMIX">      1.00000000</i>
    <i name="AMIN">      0.10000000</i>
    <i name="AMIX_MAG">      1.60000000</i>
    <i name="BMIX_MAG">      1.00000000</i>
    <separator name="electronic mixer details" >
     <i type="int" name="IMIX">     4</i>
     <i type="int" name="MAXMIX">   -45</i>
     <i name="WC">    100.00000000</i>
     <i type="int" name="INIMIX">     1</i>
     <i type="int" name="MIXPRE">     1</i>
     <i type="int" name="MREMOVE">     5</i>
    </separator>
   </separator>
   <separator name="electronic dipolcorrection" >
    <i type="logical" name="LDIPOL"> F  </i>
    <i type="logical" name="LMONO"> F  </i>
    <i type="int" name="IDIPOL">     0</i>
    <i name="EPSILON">      1.00000000</i>
    <v name="DIPOL">   -100.00000000   -100.00000000   -100.00000000</v>
    <i name="EFIELD">      0.00000000</i>
   </separator>
  </separator>
  <separator name="grids" >
   <i type="int" name="NGX">    40</i>
   <i type="int" name="NGY">    40</i>
   <i type="int" name="NGZ">    40</i>
   <i type="int" name="NGXF">    80</i>
   <i type="int" name="NGYF">    80</i>
   <i type="int" name="NGZF">    80</i>
   <i type="logical" name="ADDGRID"> F  </i>
  </separator>
  <separator name="ionic" >
   <i type="int" name="NSW">    10</i>
   <i type="int" name="IBRION">     2</i>
   <i type="int" name="ISIF">     2</i>
   <i name="PSTRESS">      0.00000000</i>
   <i name="EDIFFG">      0.00100000</i>
   <i type="int" name="NFREE">     1</i>
   <i name="POTIM">      0.50000000</i>
   <i name="SMASS">     -3.00000000</i>
   <i name="SCALEE">      1.00000000</i>
  </separator>
  <separator name="ionic md" >
   <i name="TEBEG">      0.00010000</i>
   <i name="TEEND">      0.00010000</i>
   <i type="int" name="NBLOCK">     1</i>
   <i type="int" name="KBLOCK">    10</i>
   <i type="int" name="NPACO">   256</i>
   <i name="APACO">     16.00000000</i>
  </separator>
  <separator name="symmetry" >
   <i type="int" name="ISYM">     2</i>
   <i name="SYMPREC">      0.00001000</i>
  </separator>
  <separator name="dos" >
   <i type="logical" name="LORBIT"> F  </i>
   <v name="RWIGS">     -1.00000000     -1.00000000</v>
   <i type="int" name="NEDOS">   301</i>
   <i name="EMIN">     10.00000000</i>
   <i name="EMAX">    -10.00000000</i>
   <i name="EFERMI">      0.00000000</i>
  </separator>
  <separator name="writing" >
   <i type="int" name="NWRITE">     2</i>
   <i type="logical" name="LWAVE"> T  </i>
   <i type="logical" name="LCHARG"> T  </i>
   <i type="logical" name="LPARD"> F  </i>
   <i type="logical" name="LVTOT"> F  </i>
   <i type="logical" name="LVHAR"> F  </i>
   <i type="logical" name="LELF"> F  </i>
   <i type="logical" name="LOPTICS"> F  </i>
   <v name="STM">      0.00000000      0.00000000      0.00000000      0.00000000      0.00000000      0.00000000      0.00000000</v>
  </separator>
  <separator name="performance" >
   <i type="int" name="NPAR">     1</i>
   <i type="int" name="NSIM">     4</i>
   <i type="int" name="NBLK">    -1</i>
   <i type="logical" name="LPLANE"> T  </i>
   <i type="logical" name="LSCALAPACK"> F  </i>
   <i type="logical" name="LSCAAWARE"> F  </i>
   <i type="logical" name="LSCALU"> F  </i>
   <i type="logical" name="LASYNC"> F  </i>
   <i type="logical" name="LORBITALREAL"> F  </i>
  </separator>
  <separator name="miscellaneous" >
   <i type="int" name="IDIOT">     3</i>
   <i type="logical" name="LMUSIC"> F  </i>
   <v name="POMASS">     12.01100000     16.00000000</v>
   <v name="DARWINR">      0.00000000      0.00000000</v>
   <v name="DARWINV">      1.00000000      1.00000000</v>
   <i type="logical" name="LCORR"> T  </i>
  </separator>
  <i type="logical" name="GGA_COMPAT"> T  </i>
  <i type="logical" name="LBERRY"> F  </i>
  <i type="int" name="ICORELEVEL">     0</i>
  <i type="logical" name="LDAU"> F  </i>
  <i type="int" name="I_CONSTRAINED_M">     0</i>
  <separator name="electronic exchange-correlation" >
   <i type="string" name="GGA">--</i>
   <i type="int" name="VOSKOWN">     0</i>
   <i type="logical" name="LHFCALC"> F  </i>
   <i type="string" name="PRECFOCK"></i>
   <i type="logical" name="LHFONE"> F  </i>
   <i type="logical" name="LRHFCALC"> F  </i>
   <i type="logical" name="LTHOMAS"> F  </i>
   <i type="logical" name="LMODELHF"> F  </i>
   <i name="ENCUT4O">     -1.00000000</i>
   <i type="int" name="EXXOEP">     0</i>
   <i type="int" name="FOURORBIT">     0</i>
   <i name="AEXX">      0.00000000</i>
   <i name="HFALPHA">      0.00000000</i>
   <i name="ALDAX">      1.00000000</i>
   <i name="AGGAX">      1.00000000</i>
   <i name="ALDAC">      1.00000000</i>
   <i name="AGGAC">      1.00000000</i>
   <i type="int" name="NKREDX">     1</i>
   <i type="int" name="NKREDY">     1</i>
   <i type="int" name="NKREDZ">     1</i>
   <i type="logical" name="SHIFTRED"> F  </i>
   <i type="logical" name="ODDONLY"> F  </i>
   <i type="logical" name="EVENONLY"> F  </i>
   <i type="int" name="LMAXFOCK">     0</i>
   <i type="int" name="NMAXFOCKAE">     0</i>
   <i type="logical" name="LFOCKAEDFT"> F  </i>
   <i name="HFSCREEN">      0.00000000</i>
   <i name="HFSCREENC">      0.00000000</i>
  </separator>
  <separator name="vdW DFT" >
   <i type="logical" name="LUSE_VDW"> F  </i>
   <i name="Zab_VDW">     -0.84910000</i>
   <i name="PARAM1">      0.12340000</i>
   <i name="PARAM2">      1.00000000</i>
   <i name="PARAM3">      0.00000000</i>
  </separator>
  <separator name="model GW" >
   <i type="int" name="MODEL_GW">     0</i>
   <i name="MODEL_EPS0">    102.40000000</i>
   <i name="MODEL_ALPHA">      1.00000000</i>
  </separator>
  <separator name="linear response parameters" >
   <i type="logical" name="LEPSILON"> F  </i>
   <i type="logical" name="LRPA"> F  </i>
   <i type="logical" name="LNABLA"> F  </i>
   <i type="logical" name="LVEL"> F  </i>
   <i type="int" name="KINTER">     0</i>
   <i name="CSHIFT">      0.10000000</i>
   <i name="OMEGAMAX">     -1.00000000</i>
  </separator>
  <separator name="orbital magnetization" >
   <i type="logical" name="NUCIND"> F  </i>
   <v name="MAGPOS">      0.00000000      0.00000000      0.00000000</v>
   <i type="logical" name="LNICSALL"> T  </i>
   <i type="logical" name="ORBITALMAG"> F  </i>
   <i type="logical" name="LMAGBLOCH"> F  </i>
   <i type="logical" name="LCHIMAG"> F  </i>
   <i type="logical" name="LGAUGE"> T  </i>
   <i type="int" name="MAGATOM">     0</i>
   <v name="MAGDIPOL">      0.00000000      0.00000000      0.00000000</v>
   <v name="AVECCONST">      0.00000000      0.00000000      0.00000000</v>
  </separator>
  <separator name="response functions" >
   <i type="logical" name="LADDER"> F  </i>
   <i type="logical" name="LHARTREE"> T  </i>
   <i type="int" name="IBSE">     0</i>
   <i type="logical" name="LTCTE"> F  </i>
   <i type="logical" name="LTETE"> F  </i>
   <i type="logical" name="LFXCEPS"> F  </i>
   <i type="logical" name="L2ORDER"> F  </i>
   <i type="logical" name="LUSEW"> F  </i>
   <i name="ENCUTGW">     -2.00000000</i>
   <i name="ENCUTGWSOFT">     -2.00000000</i>
   <i name="ENCUTLF">     -1.00000000</i>
   <i type="int" name="LMAXMP2">    -1</i>
   <i name="SCISSOR">      0.00000000</i>
   <i type="int" name="NOMEGA">     0</i>
   <i type="int" name="NOMEGAR">     0</i>
   <i type="int" name="NBANDSGW">    -1</i>
   <i type="int" name="NBANDSO">    -1</i>
   <i type="int" name="NBANDSV">    -1</i>
   <i name="OPTEMAX">      0.00000000</i>
   <i type="int" name="NELM">     1</i>
   <i type="int" name="DIM">     3</i>
   <i type="int" name="ANTIRES">     0</i>
   <i name="OMEGAMAX">    -30.00000000</i>
   <i name="OMEGATL">   -200.00000000</i>
   <i type="int" name="OMEGAGRID">     0</i>
   <i name="CSHIFT">     -0.10000000</i>
   <i type="logical" name="SELFENERGY"> F  </i>
   <i type="logical" name="LSPECTRAL"> F  </i>
   <i type="logical" name="ODDONLYGW"> F  </i>
   <i type="logical" name="EVENONLYGW"> F  </i>
   <i type="int" name="NKREDLFX">     1</i>
   <i type="int" name="NKREDLFY">     1</i>
   <i type="int" name="NKREDLFZ">     1</i>
   <i type="int" name="MAXMEM">  1800</i>
   <i type="int" name="TELESCOPE">     0</i>
  </separator>
 </parameters>
 <atominfo>
  <atoms>       3 </atoms>
  <types>       2 </types>
  <array name="atoms" >
   <dimension dim="1">ion</dimension>
   <field type="string">element</field>
   <field type="int">atomtype</field>
   <set>
    <rc><c>C </c><c>   1</c></rc>
    <rc><c>O </c><c>   2</c></rc>
    <rc><c>O </c><c>   2</c></rc>
   </set>
  </array>
  <array name="atomtypes" >
   <dimension dim="1">type</dimension>
   <field type="int">atomspertype</field>
   <field type="string">element</field>
   <field>mass</field>
   <field>valence</field>
   <field type="string">pseudopotential</field>
   <set>
    <rc><c>   1</c><c>C </c><c>     12.01100000</c><c>      4.00000000</c><c> PAW_PBE C 08Apr2002                    </c></rc>
    <rc><c>   2</c><c>O </c><c>     16.00000000</c><c>      6.00000000</c><c> PAW_PBE O 08Apr2002                    </c></rc>
   </set>
  </array>
 </atominfo>
 <structure name="initialpos" >
  <crystal>
   <varray name="basis" >
    <v>       8.00000000       0.00000000       0.00000000 </v>
    <v>       0.00000000       8.00000000       0.00000000 </v>
    <v>       0.00000000       0.00000000       8.00000000 </v>
   </varray>
   <i name="volume">    512.00000000 </i>
   <varray name="rec_basis" >
    <v>       0.12500000       0.00000000       0.00000000 </v>
    <v>       0.00000000       0.12500000       0.00000000 </v>
    <v>       0.00000000       0.00000000       0.12500000 </v>
   </varray>
  </crystal>
  <varray name="positions" >
   <v>       0.50000000       0.50000000       0.50000000 </v>
   <v>       0.50000000       0.50000000       0.64733225 </v>
   <v>       0.50000000       0.50000000       0.35266775 </v>
  </varray>
 </structure>
 <calculation>
  <scstep>
   <time name="dav">    0.43    0.43</time>
   <time name="total">    1.26    1.27</time>
   <energy>
    <i name="alphaZ">      2.08377909 </i>
    <i name="ewald">    170.01906707 </i>
    <i name="hartreedc">   -986.67340058 </i>
    <i name="XCdc">     68.20544515 </i>
    <i name="pawpsdc">    529.82824833 </i>
    <i name="pawaedc">   -534.67809926 </i>
    <i name="eentropy">     -0.00000002 </i>
    <i name="bandstr">   -151.38603085 </i>
    <i name="atom">   1011.07184495 </i>
    <i name="e_fr_energy">    108.47085390 </i>
    <i name="e_wo_entrp">    108.47085391 </i>
    <i name="e_0_energy">    108.47085390 </i>
   </energy>
  </scstep>
  <scstep>
   <time name="dav">    0.54    0.55</time>
   <time name="total">    0.55    0.57</time>
   <energy>
    <i name="e_fr_energy">    -13.37642173 </i>
    <i name="e_wo_entrp">    -13.37642173 </i>
    <i name="e_0_energy">    -13.37642173 </i>
   </energy>
  </scstep>
  <scstep>
   <time name="dav">    0.37    0.37</time>
   <time name="total">    0.38    0.39</time>
   <energy>
    <i name="e_fr_energy">    -24.20455237 </i>
    <i name="e_wo_entrp">    -24.20455237 </i>
    <i name="e_0_energy">    -24.20455237 </i>
   </energy>
  </scstep>
  <scstep>
   <time name="dav">    0.47    0.47</time>
   <time name="total">    0.47    0.48</time>
   <energy>
    <i name="e_fr_energy">    -24.51351039 </i>
    <i name="e_wo_entrp">    -24.51351039 </i>
    <i name="e_0_energy">    -24.51351039 </i>
   </energy>
  </scstep>
  <scstep>
   <time name="dav">    0.37    0.38</time>
   <time name="total">    0.51    0.55</time>
   <energy>
    <i name="e_fr_energy">    -24.51526905 </i>
    <i name="e_wo_entrp">    -24.51526905 </i>
    <i name="e_0_energy">    -24.51526905 </i>
   </energy>
  </scstep>
  <scstep>
   <time name="dav">    0.38    0.38</time>
   <time name="total">    1.29    1.30</time>
   <energy>
    <i name="e_fr_energy">    -23.11456110 </i>
    <i name="e_wo_entrp">    -23.11456110 </i>
    <i name="e_0_energy">    -23.11456110 </i>
   </energy>
  </scstep>
  <scstep>
   <time name="dav">    0.35    0.35</time>
   <time name="total">    1.27    1.28</time>
   <energy>
    <i name="e_fr_energy">    -23.00520630 </i>
    <i name="e_wo_entrp">    -23.00520630 </i>
    <i name="e_0_energy">    -23.00520630 </i>
   </energy>
  </scstep>
  <scstep>
   <time name="dav">    0.35    0.35</time>
   <time name="total">    1.26    1.28</time>
   <energy>
    <i name="e_fr_energy">    -22.95341841 </i>
    <i name="e_wo_entrp">    -22.95341841 </i>
    <i name="e_0_energy">    -22.95341841 </i>
   </energy>
  </scstep>
  <scstep>
   <time name="dav">    0.37    0.37</time>
   <time name="total">    1.28    1.29</time>
   <energy>
    <i name="e_fr_energy">    -22.94916263 </i>
    <i name="e_wo_entrp">    -22.94916263 </i>
    <i name="e_0_energy">    -22.94916263 </i>
   </energy>
  </scstep>
  <scstep>
   <time name="dav">    0.45    0.45</time>
   <time name="total">    1.35    1.36</time>
   <energy>
    <i name="e_fr_energy">    -22.95122504 </i>
    <i name="e_wo_entrp">    -22.95122504 </i>
    <i name="e_0_energy">    -22.95122504 </i>
   </energy>
  </scstep>
  <scstep>
   <time name="dav">    0.43    0.43</time>
   <time name="total">    1.33    1.43</time>
   <energy>
    <i name="e_fr_energy">    -22.95504005 </i>
    <i name="e_wo_entrp">    -22.95504005 </i>
    <i name="e_0_energy">    -22.95504005 </i>
   </energy>
  </scstep>
  <scstep>
   <time name="dav">    0.34    0.34</time>
   <time name="total">    1.25    1.44</time>
   <energy>
    <i name="e_fr_energy">    -22.95741564 </i>
    <i name="e_wo_entrp">    -22.95741564 </i>
    <i name="e_0_energy">    -22.95741564 </i>
   </energy>
  </scstep>
  <scstep>
   <time name="dav">    0.36    0.36</time>
   <time name="total">    1.27    1.28</time>
   <energy>
    <i name="e_fr_energy">    -22.95898479 </i>
    <i name="e_wo_entrp">    -22.95898479 </i>
    <i name="e_0_energy">    -22.95898479 </i>
   </energy>
  </scstep>
  <scstep>
   <time name="dav">    0.27    0.27</time>
   <time name="total">    1.03    1.04</time>
   <energy>
    <i name="alphaZ">      2.08377909 </i>
    <i name="ewald">    170.01906707 </i>
    <i name="hartreedc">  -1023.92772706 </i>
    <i name="XCdc">     70.25631198 </i>
    <i name="pawpsdc">    708.01703276 </i>
    <i name="pawaedc">   -712.91076124 </i>
    <i name="eentropy">      0.00000000 </i>
    <i name="bandstr">   -247.56863110 </i>
    <i name="atom">   1011.07184495 </i>
    <i name="e_fr_energy">    -22.95908354 </i>
    <i name="e_wo_entrp">    -22.95908354 </i>
    <i name="e_0_energy">    -22.95908354 </i>
   </energy>
  </scstep>
  <parameters_embedded>
   <separator name="dft+d2" >
    <i type="logical" name="LVDW"> F  </i>
   </separator>
  </parameters_embedded>
  <structure>
   <crystal>
    <varray name="basis" >
     <v>       8.00000000       0.00000000       0.00000000 </v>
     <v>       0.00000000       8.00000000       0.00000000 </v>
     <v>       0.00000000       0.00000000       8.00000000 </v>
    </varray>
    <i name="volume">    512.00000000 </i>
    <varray name="rec_basis" >
     <v>       0.12500000       0.00000000       0.00000000 </v>
     <v>       0.00000000       0.12500000       0.00000000 </v>
     <v>       0.00000000       0.00000000       0.12500000 </v>
    </varray>
   </crystal>
   <varray name="positions" >
    <v>       0.50000000       0.50000000       0.50000000 </v>
    <v>       0.50000000       0.50000000       0.64733225 </v>
    <v>       0.50000000       0.50000000       0.35266775 </v>
   </varray>
  </structure>
  <varray name="forces" >
   <v>       0.00000000       0.00000000       0.00000000 </v>
   <v>       0.00000000       0.00000000      -0.17991789 </v>
   <v>       0.00000000       0.00000000       0.17991789 </v>
  </varray>
  <varray name="stress" >
   <v>     -14.92776033       0.00000000       0.00000000 </v>
   <v>       0.00000000     -14.92776033       0.00000000 </v>
   <v>       0.00000000       0.00000000     -14.39502738 </v>
  </varray>
  <energy>
   <i name="e_fr_energy">    -22.95908354 </i>
   <i name="e_wo_entrp">    -22.95908354 </i>
   <i name="e_0_energy">      0.00000000 </i>
  </energy>
  <time name="totalsc">   17.26   18.05</time>
 </calculation>
 <calculation>
  <scstep>
   <time name="dav">    0.34    0.34</time>
   <time name="total">    1.25    1.25</time>
   <energy>
    <i name="alphaZ">      2.08377909 </i>
    <i name="ewald">    175.72070524 </i>
    <i name="hartreedc">  -1027.78428865 </i>
    <i name="XCdc">     70.32925795 </i>
    <i name="pawpsdc">    708.04862829 </i>
    <i name="pawaedc">   -712.94144354 </i>
    <i name="eentropy">      0.00000000 </i>
    <i name="bandstr">   -249.48320904 </i>
    <i name="atom">   1011.07184495 </i>
    <i name="e_fr_energy">    -22.95472571 </i>
    <i name="e_wo_entrp">    -22.95472571 </i>
    <i name="e_0_energy">    -22.95472571 </i>
   </energy>
  </scstep>
  <scstep>
   <time name="dav">    0.38    0.38</time>
   <time name="total">    1.31    1.34</time>
   <energy>
    <i name="e_fr_energy">    -22.95503525 </i>
    <i name="e_wo_entrp">    -22.95503525 </i>
    <i name="e_0_energy">    -22.95503525 </i>
   </energy>
  </scstep>
  <scstep>
   <time name="dav">    0.46    0.46</time>
   <time name="total">    1.39    1.41</time>
   <energy>
    <i name="e_fr_energy">    -22.95471030 </i>
    <i name="e_wo_entrp">    -22.95471030 </i>
    <i name="e_0_energy">    -22.95471030 </i>
   </energy>
  </scstep>
  <scstep>
   <time name="dav">    0.36    0.36</time>
   <time name="total">    1.16    1.20</time>
   <energy>
    <i name="alphaZ">      2.08377909 </i>
    <i name="ewald">    175.72070524 </i>
    <i name="hartreedc">  -1029.04026247 </i>
    <i name="XCdc">     70.39237462 </i>
    <i name="pawpsdc">    713.36789659 </i>
    <i name="pawaedc">   -718.28684000 </i>
    <i name="eentropy">      0.00000000 </i>
    <i name="bandstr">   -248.26418452 </i>
    <i name="atom">   1011.07184495 </i>
    <i name="e_fr_energy">    -22.95468649 </i>
    <i name="e_wo_entrp">    -22.95468649 </i>
    <i name="e_0_energy">    -22.95468649 </i>
   </energy>
  </scstep>
  <structure>
   <crystal>
    <varray name="basis" >
     <v>       8.00000000       0.00000000       0.00000000 </v>
     <v>       0.00000000       8.00000000       0.00000000 </v>
     <v>       0.00000000       0.00000000       8.00000000 </v>
    </varray>
    <i name="volume">    512.00000000 </i>
    <varray name="rec_basis" >
     <v>       0.12500000       0.00000000       0.00000000 </v>
     <v>       0.00000000       0.12500000       0.00000000 </v>
     <v>       0.00000000       0.00000000       0.12500000 </v>
    </varray>
   </crystal>
   <varray name="positions" >
    <v>       0.50000000       0.50000000       0.50000000 </v>
    <v>       0.50000000       0.50000000       0.64624729 </v>
    <v>       0.50000000       0.50000000       0.35375271 </v>
   </varray>
  </structure>
  <varray name="forces" >
   <v>       0.00000000       0.00000000       0.00000000 </v>
   <v>       0.00000000       0.00000000       0.72493342 </v>
   <v>       0.00000000       0.00000000      -0.72493342 </v>
  </varray>
  <varray name="stress" >
   <v>     -14.91108067       0.00000000       0.00000000 </v>
   <v>       0.00000000     -14.91108067       0.00000000 </v>
   <v>       0.00000000       0.00000000      -7.82831829 </v>
  </varray>
  <energy>
   <i name="e_fr_energy">    -22.95468649 </i>
   <i name="e_wo_entrp">    -22.95468649 </i>
   <i name="e_0_energy">      0.00000000 </i>
  </energy>
  <time name="totalsc">    6.79    6.92</time>
 </calculation>
 <calculation>
  <scstep>
   <time name="dav">    0.33    0.33</time>
   <time name="total">    1.27    1.28</time>
   <energy>
    <i name="alphaZ">      2.08377909 </i>
    <i name="ewald">    171.14550912 </i>
    <i name="hartreedc">  -1025.90454610 </i>
    <i name="XCdc">     70.33213188 </i>
    <i name="pawpsdc">    713.54347177 </i>
    <i name="pawaedc">   -718.46329902 </i>
    <i name="eentropy">      0.00000000 </i>
    <i name="bandstr">   -246.76850239 </i>
    <i name="atom">   1011.07184495 </i>
    <i name="e_fr_energy">    -22.95961069 </i>
    <i name="e_wo_entrp">    -22.95961069 </i>
    <i name="e_0_energy">    -22.95961069 </i>
   </energy>
  </scstep>
  <scstep>
   <time name="dav">    0.39    0.39</time>
   <time name="total">    1.32    1.32</time>
   <energy>
    <i name="e_fr_energy">    -22.95979488 </i>
    <i name="e_wo_entrp">    -22.95979488 </i>
    <i name="e_0_energy">    -22.95979488 </i>
   </energy>
  </scstep>
  <scstep>
   <time name="dav">    0.36    0.37</time>
   <time name="total">    1.31    1.35</time>
   <energy>
    <i name="e_fr_energy">    -22.95958974 </i>
    <i name="e_wo_entrp">    -22.95958974 </i>
    <i name="e_0_energy">    -22.95958974 </i>
   </energy>
  </scstep>
  <scstep>
   <time name="dav">    0.36    0.36</time>
   <time name="total">    1.16    1.18</time>
   <energy>
    <i name="alphaZ">      2.08377909 </i>
    <i name="ewald">    171.14550912 </i>
    <i name="hartreedc">  -1024.93329615 </i>
    <i name="XCdc">     70.28289342 </i>
    <i name="pawpsdc">    709.48842109 </i>
    <i name="pawaedc">   -714.38823257 </i>
    <i name="eentropy">      0.00000000 </i>
    <i name="bandstr">   -247.71049327 </i>
    <i name="atom">   1011.07184495 </i>
    <i name="e_fr_energy">    -22.95957431 </i>
    <i name="e_wo_entrp">    -22.95957431 </i>
    <i name="e_0_energy">    -22.95957431 </i>
   </energy>
  </scstep>
  <structure>
   <crystal>
    <varray name="basis" >
     <v>       8.00000000       0.00000000       0.00000000 </v>
     <v>       0.00000000       8.00000000       0.00000000 </v>
     <v>       0.00000000       0.00000000       8.00000000 </v>
    </varray>
    <i name="volume">    512.00000000 </i>
    <varray name="rec_basis" >
     <v>       0.12500000       0.00000000       0.00000000 </v>
     <v>       0.00000000       0.12500000       0.00000000 </v>
     <v>       0.00000000       0.00000000       0.12500000 </v>
    </varray>
   </crystal>
   <varray name="positions" >
    <v>       0.50000000       0.50000000       0.50000000 </v>
    <v>       0.50000000       0.50000000       0.64711652 </v>
    <v>       0.50000000       0.50000000       0.35288348 </v>
   </varray>
  </structure>
  <varray name="forces" >
   <v>       0.00000000       0.00000000       0.00000000 </v>
   <v>       0.00000000       0.00000000      -0.01737258 </v>
   <v>       0.00000000       0.00000000       0.01737258 </v>
  </varray>
  <varray name="stress" >
   <v>     -14.87051943       0.00000000       0.00000000 </v>
   <v>       0.00000000     -14.87051943       0.00000000 </v>
   <v>       0.00000000       0.00000000     -13.17281892 </v>
  </varray>
  <energy>
   <i name="e_fr_energy">    -22.95957431 </i>
   <i name="e_wo_entrp">    -22.95957431 </i>
   <i name="e_0_energy">      0.00000000 </i>
  </energy>
  <time name="totalsc">    6.61    6.76</time>
  <eigenvalues>
   <array>
    <dimension dim="1">band</dimension>
    <dimension dim="2">kpoint</dimension>
    <dimension dim="3">spin</dimension>
    <field>eigene</field>
    <field>occ</field>
    <set>
     <set comment="spin 1">
      <set comment="kpoint 1">
       <r>  -28.7855    1.0000 </r>
       <r>  -27.7720    1.0000 </r>
       <r>  -13.3882    1.0000 </r>
       <r>  -12.2217    1.0000 </r>
       <r>  -12.2217    1.0000 </r>
       <r>  -12.1769    1.0000 </r>
       <r>   -8.6446    1.0000 </r>
       <r>   -8.6446    1.0000 </r>
       <r>   -0.8711    0.0000 </r>
       <r>   -0.1437    0.0000 </r>
      </set>
     </set>
    </set>
   </array>
  </eigenvalues>
  <separator name="orbital magnetization" >
   <v name="MAGDIPOLOUT">      0.00000000      0.00000000      0.00000000</v>
  </separator>
  <dos>
   <i name="efermi">     -7.60897361 </i>
   <total>
    <array>
     <dimension dim="1">gridpoints</dimension>
     <dimension dim="2">spin</dimension>
     <field>energy</field>
     <field>total</field>
     <field>integrated</field>
     <set>
      <set comment="spin 1">
       <r>   -30.7855     0.0000     0.0000 </r>
       <r>   -30.6767     0.0000     0.0000 </r>
       <r>   -30.5679     0.0000     0.0000 </r>
       <r>   -30.4591     0.0000     0.0000 </r>
       <r>   -30.3503     0.0000     0.0000 </r>
       <r>   -30.2415     0.0000     0.0000 </r>
       <r>   -30.1327     0.0000     0.0000 </r>
       <r>   -30.0239     0.0000     0.0000 </r>
       <r>   -29.9151     0.0000     0.0000 </r>
       <r>   -29.8063     0.0000     0.0000 </r>
       <r>   -29.6975     0.0000     0.0000 </r>
       <r>   -29.5887     0.0000     0.0000 </r>
       <r>   -29.4799     0.0000     0.0000 </r>
       <r>   -29.3711     0.0003     0.0000 </r>
       <r>   -29.2622     0.0066     0.0007 </r>
       <r>   -29.1534     0.0784     0.0093 </r>
       <r>   -29.0446     0.5299     0.0669 </r>
       <r>   -28.9358     2.0308     0.2879 </r>
       <r>   -28.8270     4.4238     0.7692 </r>
       <r>   -28.7182     5.4840     1.3659 </r>
       <r>   -28.6094     3.8700     1.7870 </r>
       <r>   -28.5006     1.5538     1.9561 </r>
       <r>   -28.3918     0.3545     1.9946 </r>
       <r>   -28.2830     0.0485     1.9999 </r>
       <r>   -28.1742     0.0415     2.0044 </r>
       <r>   -28.0654     0.3087     2.0380 </r>
       <r>   -27.9566     1.4137     2.1918 </r>
       <r>   -27.8478     3.6788     2.5921 </r>
       <r>   -27.7390     5.4463     3.1847 </r>
       <r>   -27.6302     4.5900     3.6841 </r>
       <r>   -27.5213     2.2014     3.9237 </r>
       <r>   -27.4125     0.6002     3.9890 </r>
       <r>   -27.3037     0.0928     3.9991 </r>
       <r>   -27.1949     0.0081     4.0000 </r>
       <r>   -27.0861     0.0004     4.0000 </r>
       <r>   -26.9773     0.0000     4.0000 </r>
       <r>   -26.8685     0.0000     4.0000 </r>
       <r>   -26.7597     0.0000     4.0000 </r>
       <r>   -26.6509     0.0000     4.0000 </r>
       <r>   -26.5421     0.0000     4.0000 </r>
       <r>   -26.4333     0.0000     4.0000 </r>
       <r>   -26.3245     0.0000     4.0000 </r>
       <r>   -26.2157     0.0000     4.0000 </r>
       <r>   -26.1069     0.0000     4.0000 </r>
       <r>   -25.9981     0.0000     4.0000 </r>
       <r>   -25.8893     0.0000     4.0000 </r>
       <r>   -25.7804     0.0000     4.0000 </r>
       <r>   -25.6716     0.0000     4.0000 </r>
       <r>   -25.5628     0.0000     4.0000 </r>
       <r>   -25.4540     0.0000     4.0000 </r>
       <r>   -25.3452     0.0000     4.0000 </r>
       <r>   -25.2364     0.0000     4.0000 </r>
       <r>   -25.1276     0.0000     4.0000 </r>
       <r>   -25.0188     0.0000     4.0000 </r>
       <r>   -24.9100     0.0000     4.0000 </r>
       <r>   -24.8012     0.0000     4.0000 </r>
       <r>   -24.6924     0.0000     4.0000 </r>
       <r>   -24.5836     0.0000     4.0000 </r>
       <r>   -24.4748     0.0000     4.0000 </r>
       <r>   -24.3660     0.0000     4.0000 </r>
       <r>   -24.2572     0.0000     4.0000 </r>
       <r>   -24.1484     0.0000     4.0000 </r>
       <r>   -24.0396     0.0000     4.0000 </r>
       <r>   -23.9307     0.0000     4.0000 </r>
       <r>   -23.8219     0.0000     4.0000 </r>
       <r>   -23.7131     0.0000     4.0000 </r>
       <r>   -23.6043     0.0000     4.0000 </r>
       <r>   -23.4955     0.0000     4.0000 </r>
       <r>   -23.3867     0.0000     4.0000 </r>
       <r>   -23.2779     0.0000     4.0000 </r>
       <r>   -23.1691     0.0000     4.0000 </r>
       <r>   -23.0603     0.0000     4.0000 </r>
       <r>   -22.9515     0.0000     4.0000 </r>
       <r>   -22.8427     0.0000     4.0000 </r>
       <r>   -22.7339     0.0000     4.0000 </r>
       <r>   -22.6251     0.0000     4.0000 </r>
       <r>   -22.5163     0.0000     4.0000 </r>
       <r>   -22.4075     0.0000     4.0000 </r>
       <r>   -22.2987     0.0000     4.0000 </r>
       <r>   -22.1898     0.0000     4.0000 </r>
       <r>   -22.0810     0.0000     4.0000 </r>
       <r>   -21.9722     0.0000     4.0000 </r>
       <r>   -21.8634     0.0000     4.0000 </r>
       <r>   -21.7546     0.0000     4.0000 </r>
       <r>   -21.6458     0.0000     4.0000 </r>
       <r>   -21.5370     0.0000     4.0000 </r>
       <r>   -21.4282     0.0000     4.0000 </r>
       <r>   -21.3194     0.0000     4.0000 </r>
       <r>   -21.2106     0.0000     4.0000 </r>
       <r>   -21.1018     0.0000     4.0000 </r>
       <r>   -20.9930     0.0000     4.0000 </r>
       <r>   -20.8842     0.0000     4.0000 </r>
       <r>   -20.7754     0.0000     4.0000 </r>
       <r>   -20.6666     0.0000     4.0000 </r>
       <r>   -20.5578     0.0000     4.0000 </r>
       <r>   -20.4489     0.0000     4.0000 </r>
       <r>   -20.3401     0.0000     4.0000 </r>
       <r>   -20.2313     0.0000     4.0000 </r>
       <r>   -20.1225     0.0000     4.0000 </r>
       <r>   -20.0137     0.0000     4.0000 </r>
       <r>   -19.9049     0.0000     4.0000 </r>
       <r>   -19.7961     0.0000     4.0000 </r>
       <r>   -19.6873     0.0000     4.0000 </r>
       <r>   -19.5785     0.0000     4.0000 </r>
       <r>   -19.4697     0.0000     4.0000 </r>
       <r>   -19.3609     0.0000     4.0000 </r>
       <r>   -19.2521     0.0000     4.0000 </r>
       <r>   -19.1433     0.0000     4.0000 </r>
       <r>   -19.0345     0.0000     4.0000 </r>
       <r>   -18.9257     0.0000     4.0000 </r>
       <r>   -18.8169     0.0000     4.0000 </r>
       <r>   -18.7081     0.0000     4.0000 </r>
       <r>   -18.5992     0.0000     4.0000 </r>
       <r>   -18.4904     0.0000     4.0000 </r>
       <r>   -18.3816     0.0000     4.0000 </r>
       <r>   -18.2728     0.0000     4.0000 </r>
       <r>   -18.1640     0.0000     4.0000 </r>
       <r>   -18.0552     0.0000     4.0000 </r>
       <r>   -17.9464     0.0000     4.0000 </r>
       <r>   -17.8376     0.0000     4.0000 </r>
       <r>   -17.7288     0.0000     4.0000 </r>
       <r>   -17.6200     0.0000     4.0000 </r>
       <r>   -17.5112     0.0000     4.0000 </r>
       <r>   -17.4024     0.0000     4.0000 </r>
       <r>   -17.2936     0.0000     4.0000 </r>
       <r>   -17.1848     0.0000     4.0000 </r>
       <r>   -17.0760     0.0000     4.0000 </r>
       <r>   -16.9672     0.0000     4.0000 </r>
       <r>   -16.8583     0.0000     4.0000 </r>
       <r>   -16.7495     0.0000     4.0000 </r>
       <r>   -16.6407     0.0000     4.0000 </r>
       <r>   -16.5319     0.0000     4.0000 </r>
       <r>   -16.4231     0.0000     4.0000 </r>
       <r>   -16.3143     0.0000     4.0000 </r>
       <r>   -16.2055     0.0000     4.0000 </r>
       <r>   -16.0967     0.0000     4.0000 </r>
       <r>   -15.9879     0.0000     4.0000 </r>
       <r>   -15.8791     0.0000     4.0000 </r>
       <r>   -15.7703     0.0000     4.0000 </r>
       <r>   -15.6615     0.0000     4.0000 </r>
       <r>   -15.5527     0.0000     4.0000 </r>
       <r>   -15.4439     0.0000     4.0000 </r>
       <r>   -15.3351     0.0000     4.0000 </r>
       <r>   -15.2263     0.0000     4.0000 </r>
       <r>   -15.1174     0.0000     4.0000 </r>
       <r>   -15.0086     0.0000     4.0000 </r>
       <r>   -14.8998     0.0000     4.0000 </r>
       <r>   -14.7910     0.0000     4.0000 </r>
       <r>   -14.6822     0.0000     4.0000 </r>
       <r>   -14.5734     0.0000     4.0000 </r>
       <r>   -14.4646     0.0000     4.0000 </r>
       <r>   -14.3558     0.0000     4.0000 </r>
       <r>   -14.2470     0.0000     4.0000 </r>
       <r>   -14.1382     0.0000     4.0000 </r>
       <r>   -14.0294     0.0001     4.0000 </r>
       <r>   -13.9206     0.0015     4.0002 </r>
       <r>   -13.8118     0.0237     4.0027 </r>
       <r>   -13.7030     0.2141     4.0260 </r>
       <r>   -13.5942     1.0962     4.1453 </r>
       <r>   -13.4854     3.1875     4.4921 </r>
       <r>   -13.3765     5.2716     5.0657 </r>
       <r>   -13.2677     4.9627     5.6057 </r>
       <r>   -13.1589     2.6592     5.8950 </r>
       <r>   -13.0501     0.8102     5.9832 </r>
       <r>   -12.9413     0.1401     5.9984 </r>
       <r>   -12.8325     0.0140     5.9999 </r>
       <r>   -12.7237     0.0085     6.0009 </r>
       <r>   -12.6149     0.1097     6.0128 </r>
       <r>   -12.5061     0.8804     6.1086 </r>
       <r>   -12.3973     4.0386     6.5480 </r>
       <r>   -12.2885    10.6232     7.7039 </r>
       <r>   -12.1797    16.0656     9.4519 </r>
       <r>   -12.0709    13.9926    10.9744 </r>
       <r>   -11.9621     7.0233    11.7386 </r>
       <r>   -11.8533     2.0307    11.9595 </r>
       <r>   -11.7445     0.3377    11.9963 </r>
       <r>   -11.6357     0.0322    11.9998 </r>
       <r>   -11.5268     0.0018    12.0000 </r>
       <r>   -11.4180     0.0001    12.0000 </r>
       <r>   -11.3092     0.0000    12.0000 </r>
       <r>   -11.2004     0.0000    12.0000 </r>
       <r>   -11.0916     0.0000    12.0000 </r>
       <r>   -10.9828     0.0000    12.0000 </r>
       <r>   -10.8740     0.0000    12.0000 </r>
       <r>   -10.7652     0.0000    12.0000 </r>
       <r>   -10.6564     0.0000    12.0000 </r>
       <r>   -10.5476     0.0000    12.0000 </r>
       <r>   -10.4388     0.0000    12.0000 </r>
       <r>   -10.3300     0.0000    12.0000 </r>
       <r>   -10.2212     0.0000    12.0000 </r>
       <r>   -10.1124     0.0000    12.0000 </r>
       <r>   -10.0036     0.0000    12.0000 </r>
       <r>    -9.8948     0.0000    12.0000 </r>
       <r>    -9.7859     0.0000    12.0000 </r>
       <r>    -9.6771     0.0000    12.0000 </r>
       <r>    -9.5683     0.0000    12.0000 </r>
       <r>    -9.4595     0.0000    12.0000 </r>
       <r>    -9.3507     0.0000    12.0000 </r>
       <r>    -9.2419     0.0004    12.0000 </r>
       <r>    -9.1331     0.0097    12.0011 </r>
       <r>    -9.0243     0.1231    12.0145 </r>
       <r>    -8.9155     0.8850    12.1108 </r>
       <r>    -8.8067     3.6071    12.5033 </r>
       <r>    -8.6979     8.3548    13.4123 </r>
       <r>    -8.5891    11.0112    14.6104 </r>
       <r>    -8.4803     8.2615    15.5093 </r>
       <r>    -8.3715     3.5269    15.8931 </r>
       <r>    -8.2627     0.8556    15.9862 </r>
       <r>    -8.1539     0.1177    15.9990 </r>
       <r>    -8.0450     0.0092    16.0000 </r>
       <r>    -7.9362     0.0004    16.0000 </r>
       <r>    -7.8274     0.0000    16.0000 </r>
       <r>    -7.7186     0.0000    16.0000 </r>
       <r>    -7.6098     0.0000    16.0000 </r>
       <r>    -7.5010     0.0000    16.0000 </r>
       <r>    -7.3922     0.0000    16.0000 </r>
       <r>    -7.2834     0.0000    16.0000 </r>
       <r>    -7.1746     0.0000    16.0000 </r>
       <r>    -7.0658     0.0000    16.0000 </r>
       <r>    -6.9570     0.0000    16.0000 </r>
       <r>    -6.8482     0.0000    16.0000 </r>
       <r>    -6.7394     0.0000    16.0000 </r>
       <r>    -6.6306     0.0000    16.0000 </r>
       <r>    -6.5218     0.0000    16.0000 </r>
       <r>    -6.4130     0.0000    16.0000 </r>
       <r>    -6.3041     0.0000    16.0000 </r>
       <r>    -6.1953     0.0000    16.0000 </r>
       <r>    -6.0865     0.0000    16.0000 </r>
       <r>    -5.9777     0.0000    16.0000 </r>
       <r>    -5.8689     0.0000    16.0000 </r>
       <r>    -5.7601     0.0000    16.0000 </r>
       <r>    -5.6513     0.0000    16.0000 </r>
       <r>    -5.5425     0.0000    16.0000 </r>
       <r>    -5.4337     0.0000    16.0000 </r>
       <r>    -5.3249     0.0000    16.0000 </r>
       <r>    -5.2161     0.0000    16.0000 </r>
       <r>    -5.1073     0.0000    16.0000 </r>
       <r>    -4.9985     0.0000    16.0000 </r>
       <r>    -4.8897     0.0000    16.0000 </r>
       <r>    -4.7809     0.0000    16.0000 </r>
       <r>    -4.6721     0.0000    16.0000 </r>
       <r>    -4.5633     0.0000    16.0000 </r>
       <r>    -4.4544     0.0000    16.0000 </r>
       <r>    -4.3456     0.0000    16.0000 </r>
       <r>    -4.2368     0.0000    16.0000 </r>
       <r>    -4.1280     0.0000    16.0000 </r>
       <r>    -4.0192     0.0000    16.0000 </r>
       <r>    -3.9104     0.0000    16.0000 </r>
       <r>    -3.8016     0.0000    16.0000 </r>
       <r>    -3.6928     0.0000    16.0000 </r>
       <r>    -3.5840     0.0000    16.0000 </r>
       <r>    -3.4752     0.0000    16.0000 </r>
       <r>    -3.3664     0.0000    16.0000 </r>
       <r>    -3.2576     0.0000    16.0000 </r>
       <r>    -3.1488     0.0000    16.0000 </r>
       <r>    -3.0400     0.0000    16.0000 </r>
       <r>    -2.9312     0.0000    16.0000 </r>
       <r>    -2.8224     0.0000    16.0000 </r>
       <r>    -2.7135     0.0000    16.0000 </r>
       <r>    -2.6047     0.0000    16.0000 </r>
       <r>    -2.4959     0.0000    16.0000 </r>
       <r>    -2.3871     0.0000    16.0000 </r>
       <r>    -2.2783     0.0000    16.0000 </r>
       <r>    -2.1695     0.0000    16.0000 </r>
       <r>    -2.0607     0.0000    16.0000 </r>
       <r>    -1.9519     0.0000    16.0000 </r>
       <r>    -1.8431     0.0000    16.0000 </r>
       <r>    -1.7343     0.0000    16.0000 </r>
       <r>    -1.6255     0.0000    16.0000 </r>
       <r>    -1.5167     0.0000    16.0000 </r>
       <r>    -1.4079     0.0013    16.0001 </r>
       <r>    -1.2991     0.0214    16.0025 </r>
       <r>    -1.1903     0.1978    16.0240 </r>
       <r>    -1.0815     1.0369    16.1368 </r>
       <r>    -0.9726     3.0854    16.4725 </r>
       <r>    -0.8638     5.2217    17.0407 </r>
       <r>    -0.7550     5.0304    17.5880 </r>
       <r>    -0.6462     2.7615    17.8885 </r>
       <r>    -0.5374     0.9058    17.9870 </r>
       <r>    -0.4286     0.5066    18.0422 </r>
       <r>    -0.3198     1.5691    18.2129 </r>
       <r>    -0.2110     3.8709    18.6341 </r>
       <r>    -0.1022     5.4840    19.2308 </r>
       <r>     0.0066     4.4238    19.7121 </r>
       <r>     0.1154     2.0308    19.9331 </r>
       <r>     0.2242     0.5299    19.9907 </r>
       <r>     0.3330     0.0784    19.9993 </r>
       <r>     0.4418     0.0066    20.0000 </r>
       <r>     0.5506     0.0003    20.0000 </r>
       <r>     0.6594     0.0000    20.0000 </r>
       <r>     0.7682     0.0000    20.0000 </r>
       <r>     0.8771     0.0000    20.0000 </r>
       <r>     0.9859     0.0000    20.0000 </r>
       <r>     1.0947     0.0000    20.0000 </r>
       <r>     1.2035     0.0000    20.0000 </r>
       <r>     1.3123     0.0000    20.0000 </r>
       <r>     1.4211     0.0000    20.0000 </r>
       <r>     1.5299     0.0000    20.0000 </r>
       <r>     1.6387     0.0000    20.0000 </r>
       <r>     1.7475     0.0000    20.0000 </r>
       <r>     1.8563     0.0000    20.0000 </r>
      </set>
     </set>
    </array>
   </total>
  </dos>
 </calculation>
 <structure name="finalpos" >
  <crystal>
   <varray name="basis" >
    <v>       8.00000000       0.00000000       0.00000000 </v>
    <v>       0.00000000       8.00000000       0.00000000 </v>
    <v>       0.00000000       0.00000000       8.00000000 </v>
   </varray>
   <i name="volume">    512.00000000 </i>
   <varray name="rec_basis" >
    <v>       0.12500000       0.00000000       0.00000000 </v>
    <v>       0.00000000       0.12500000       0.00000000 </v>
    <v>       0.00000000       0.00000000       0.12500000 </v>
   </varray>
  </crystal>
  <varray name="positions" >
   <v>       0.50000000       0.50000000       0.50000000 </v>
   <v>       0.50000000       0.50000000       0.64711652 </v>
   <v>       0.50000000       0.50000000       0.35288348 </v>
  </varray>
 </structure>
</modeling>
