   8   8   0   0
  0.1250000E+03  0.1000000E-08  0.1000000E-08  0.1000000E-08  0.5000000E-15
  1.000000000000000E-004
  CAR 
 unknown system                          
      4.41128078    -20.32566669  301     -6.88509751      1.00000000
    -20.326  0.0000E+00  0.0000E+00  0.0000E+00  0.0000E+00
    -20.243  0.0000E+00  0.0000E+00  0.0000E+00  0.0000E+00
    -20.161  0.0000E+00  0.0000E+00  0.0000E+00  0.0000E+00
    -20.078  0.0000E+00  0.0000E+00  0.0000E+00  0.0000E+00
    -19.996  0.0000E+00  0.0000E+00  0.0000E+00  0.0000E+00
    -19.913  0.0000E+00  0.0000E+00  0.0000E+00  0.0000E+00
    -19.831  0.0000E+00  0.0000E+00  0.0000E+00  0.0000E+00
    -19.748  0.0000E+00  0.0000E+00  0.0000E+00  0.0000E+00
    -19.666  0.0000E+00  0.0000E+00  0.0000E+00  0.0000E+00
    -19.584  0.0000E+00  0.0000E+00  0.0000E+00  0.0000E+00
    -19.501  0.6732E-16  0.6732E-16  0.5551E-17  0.5551E-17
    -19.419  0.6530E-14  0.6530E-14  0.5440E-15  0.5440E-15
    -19.336  0.5372E-12  0.5355E-12  0.4484E-13  0.4470E-13
    -19.254  0.3156E-10  0.3147E-10  0.2647E-11  0.2640E-11
    -19.171  0.1326E-08  0.1323E-08  0.1120E-09  0.1117E-09
    -19.089  0.3989E-07  0.3980E-07  0.3401E-08  0.3393E-08
    -19.006  0.8592E-06  0.8574E-06  0.7425E-07  0.7409E-07
    -18.924  0.1326E-04  0.1323E-04  0.1167E-05  0.1165E-05
    -18.841  0.1466E-03  0.1464E-03  0.1326E-04  0.1324E-04
    -18.759  0.1163E-02  0.1162E-02  0.1092E-03  0.1090E-03
    -18.677  0.6620E-02  0.6612E-02  0.6550E-03  0.6542E-03
    -18.594  0.2704E-01  0.2702E-01  0.2885E-02  0.2882E-02
    -18.512  0.7934E-01  0.7929E-01  0.9427E-02  0.9420E-02
    -18.429  0.1672E+00  0.1671E+00  0.2321E-01  0.2320E-01
    -18.347  0.2531E+00  0.2531E+00  0.4409E-01  0.4407E-01
    -18.264  0.2754E+00  0.2754E+00  0.6679E-01  0.6678E-01
    -18.182  0.2153E+00  0.2154E+00  0.8455E-01  0.8454E-01
    -18.099  0.1210E+00  0.1210E+00  0.9452E-01  0.9452E-01
    -18.017  0.4882E-01  0.4886E-01  0.9855E-01  0.9855E-01
    -17.934  0.1415E-01  0.1417E-01  0.9972E-01  0.9972E-01
    -17.852  0.2945E-02  0.2949E-02  0.9996E-01  0.9996E-01
    -17.770  0.4399E-03  0.4406E-03  0.1000E+00  0.1000E+00
    -17.687  0.4713E-04  0.4721E-04  0.1000E+00  0.1000E+00
    -17.605  0.3620E-05  0.3628E-05  0.1000E+00  0.1000E+00
    -17.522  0.1993E-06  0.1997E-06  0.1000E+00  0.1000E+00
    -17.440  0.7858E-08  0.7878E-08  0.1000E+00  0.1000E+00
    -17.357  0.2218E-09  0.2224E-09  0.1000E+00  0.1000E+00
    -17.275  0.4480E-11  0.4493E-11  0.1000E+00  0.1000E+00
    -17.192  0.6476E-13  0.6503E-13  0.1000E+00  0.1000E+00
    -17.110  0.6732E-15  0.6732E-15  0.1000E+00  0.1000E+00
    -17.027  0.0000E+00  0.0000E+00  0.1000E+00  0.1000E+00
    -16.945  0.0000E+00  0.0000E+00  0.1000E+00  0.1000E+00
    -16.862  0.0000E+00  0.0000E+00  0.1000E+00  0.1000E+00
    -16.780  0.0000E+00  0.0000E+00  0.1000E+00  0.1000E+00
    -16.698  0.0000E+00  0.0000E+00  0.1000E+00  0.1000E+00
    -16.615  0.0000E+00  0.0000E+00  0.1000E+00  0.1000E+00
    -16.533  0.0000E+00  0.0000E+00  0.1000E+00  0.1000E+00
    -16.450  0.0000E+00  0.0000E+00  0.1000E+00  0.1000E+00
    -16.368  0.0000E+00  0.0000E+00  0.1000E+00  0.1000E+00
    -16.285  0.0000E+00  0.0000E+00  0.1000E+00  0.1000E+00
    -16.203  0.0000E+00  0.0000E+00  0.1000E+00  0.1000E+00
    -16.120  0.0000E+00  0.0000E+00  0.1000E+00  0.1000E+00
    -16.038  0.0000E+00  0.0000E+00  0.1000E+00  0.1000E+00
    -15.955  0.0000E+00  0.0000E+00  0.1000E+00  0.1000E+00
    -15.873  0.1144E-14  0.1144E-14  0.1000E+00  0.1000E+00
    -15.791  0.1046E-12  0.1041E-12  0.1000E+00  0.1000E+00
    -15.708  0.6978E-11  0.6955E-11  0.1000E+00  0.1000E+00
    -15.626  0.3331E-09  0.3320E-09  0.1000E+00  0.1000E+00
    -15.543  0.1138E-07  0.1134E-07  0.1000E+00  0.1000E+00
    -15.461  0.2782E-06  0.2775E-06  0.1000E+00  0.1000E+00
    -15.378  0.4872E-05  0.4861E-05  0.1000E+00  0.1000E+00
    -15.296  0.6116E-04  0.6103E-04  0.1000E+00  0.1000E+00
    -15.213  0.5504E-03  0.5495E-03  0.1001E+00  0.1001E+00
    -15.131  0.3554E-02  0.3549E-02  0.1003E+00  0.1003E+00
    -15.048  0.1647E-01  0.1645E-01  0.1017E+00  0.1017E+00
    -14.966  0.5479E-01  0.5474E-01  0.1062E+00  0.1062E+00
    -14.884  0.1309E+00  0.1309E+00  0.1170E+00  0.1170E+00
    -14.801  0.2248E+00  0.2247E+00  0.1356E+00  0.1355E+00
    -14.719  0.2773E+00  0.2773E+00  0.1584E+00  0.1584E+00
    -14.636  0.2458E+00  0.2459E+00  0.1787E+00  0.1787E+00
    -14.554  0.1566E+00  0.1567E+00  0.1916E+00  0.1916E+00
    -14.471  0.7167E-01  0.7173E-01  0.1975E+00  0.1975E+00
    -14.389  0.2356E-01  0.2359E-01  0.1995E+00  0.1995E+00
    -14.306  0.5562E-02  0.5570E-02  0.1999E+00  0.1999E+00
    -14.224  0.9425E-03  0.9441E-03  0.2000E+00  0.2000E+00
    -14.141  0.1146E-03  0.1148E-03  0.2000E+00  0.2000E+00
    -14.059  0.9989E-05  0.1001E-04  0.2000E+00  0.2000E+00
    -13.977  0.6242E-06  0.6258E-06  0.2000E+00  0.2000E+00
    -13.894  0.2794E-07  0.2802E-07  0.2000E+00  0.2000E+00
    -13.812  0.8956E-09  0.8984E-09  0.2000E+00  0.2000E+00
    -13.729  0.2055E-10  0.2061E-10  0.2000E+00  0.2000E+00
    -13.647  0.3371E-12  0.3384E-12  0.2000E+00  0.2000E+00
    -13.564  0.4039E-14  0.4039E-14  0.2000E+00  0.2000E+00
    -13.482  0.0000E+00  0.0000E+00  0.2000E+00  0.2000E+00
    -13.399  0.0000E+00  0.0000E+00  0.2000E+00  0.2000E+00
    -13.317  0.0000E+00  0.0000E+00  0.2000E+00  0.2000E+00
    -13.234  0.0000E+00  0.0000E+00  0.2000E+00  0.2000E+00
    -13.152  0.0000E+00  0.0000E+00  0.2000E+00  0.2000E+00
    -13.069  0.0000E+00  0.0000E+00  0.2000E+00  0.2000E+00
    -12.987  0.0000E+00  0.0000E+00  0.2000E+00  0.2000E+00
    -12.905  0.0000E+00  0.0000E+00  0.2000E+00  0.2000E+00
    -12.822  0.0000E+00  0.0000E+00  0.2000E+00  0.2000E+00
    -12.740  0.0000E+00  0.0000E+00  0.2000E+00  0.2000E+00
    -12.657  0.0000E+00  0.0000E+00  0.2000E+00  0.2000E+00
    -12.575  0.0000E+00  0.0000E+00  0.2000E+00  0.2000E+00
    -12.492  0.0000E+00  0.0000E+00  0.2000E+00  0.2000E+00
    -12.410  0.0000E+00  0.0000E+00  0.2000E+00  0.2000E+00
    -12.327  0.0000E+00  0.0000E+00  0.2000E+00  0.2000E+00
    -12.245  0.0000E+00  0.0000E+00  0.2000E+00  0.2000E+00
    -12.162  0.0000E+00  0.0000E+00  0.2000E+00  0.2000E+00
    -12.080  0.0000E+00  0.0000E+00  0.2000E+00  0.2000E+00
    -11.998  0.0000E+00  0.0000E+00  0.2000E+00  0.2000E+00
    -11.915  0.0000E+00  0.0000E+00  0.2000E+00  0.2000E+00
    -11.833  0.0000E+00  0.0000E+00  0.2000E+00  0.2000E+00
    -11.750  0.0000E+00  0.0000E+00  0.2000E+00  0.2000E+00
    -11.668  0.0000E+00  0.0000E+00  0.2000E+00  0.2000E+00
    -11.585  0.0000E+00  0.0000E+00  0.2000E+00  0.2000E+00
    -11.503  0.0000E+00  0.0000E+00  0.2000E+00  0.2000E+00
    -11.420  0.5386E-15  0.5386E-15  0.2000E+00  0.2000E+00
    -11.338  0.5615E-13  0.5601E-13  0.2000E+00  0.2000E+00
    -11.255  0.4137E-11  0.4128E-11  0.2000E+00  0.2000E+00
    -11.173  0.2182E-09  0.2177E-09  0.2000E+00  0.2000E+00
    -11.091  0.8232E-08  0.8217E-08  0.2000E+00  0.2000E+00
    -11.008  0.2223E-06  0.2220E-06  0.2000E+00  0.2000E+00
    -10.926  0.4301E-05  0.4295E-05  0.2000E+00  0.2000E+00
    -10.843  0.5962E-04  0.5954E-04  0.2000E+00  0.2000E+00
    -10.761  0.5924E-03  0.5917E-03  0.2001E+00  0.2001E+00
    -10.678  0.4222E-02  0.4218E-02  0.2004E+00  0.2004E+00
    -10.596  0.2160E-01  0.2158E-01  0.2022E+00  0.2022E+00
    -10.513  0.7930E-01  0.7926E-01  0.2087E+00  0.2087E+00
    -10.431  0.2091E+00  0.2090E+00  0.2260E+00  0.2260E+00
    -10.348  0.3962E+00  0.3961E+00  0.2586E+00  0.2586E+00
    -10.266  0.5393E+00  0.5393E+00  0.3031E+00  0.3031E+00
    -10.184  0.5275E+00  0.5276E+00  0.3466E+00  0.3466E+00
    -10.101  0.3708E+00  0.3709E+00  0.3772E+00  0.3772E+00
    -10.019  0.1873E+00  0.1874E+00  0.3926E+00  0.3926E+00
     -9.936  0.6795E-01  0.6799E-01  0.3982E+00  0.3982E+00
     -9.854  0.1770E-01  0.1772E-01  0.3997E+00  0.3997E+00
     -9.771  0.3311E-02  0.3315E-02  0.4000E+00  0.4000E+00
     -9.689  0.4444E-03  0.4449E-03  0.4000E+00  0.4000E+00
     -9.606  0.4278E-04  0.4284E-04  0.4000E+00  0.4000E+00
     -9.524  0.2953E-05  0.2957E-05  0.4000E+00  0.4000E+00
     -9.441  0.1705E-06  0.1707E-06  0.4000E+00  0.4000E+00
     -9.359  0.5600E-06  0.5598E-06  0.4000E+00  0.4000E+00
     -9.276  0.8998E-05  0.8996E-05  0.4000E+00  0.4000E+00
     -9.194  0.1046E-03  0.1046E-03  0.4000E+00  0.4000E+00
     -9.112  0.8719E-03  0.8717E-03  0.4001E+00  0.4001E+00
     -9.029  0.5214E-02  0.5213E-02  0.4005E+00  0.4005E+00
     -8.947  0.2238E-01  0.2238E-01  0.4024E+00  0.4024E+00
     -8.864  0.6899E-01  0.6898E-01  0.4080E+00  0.4080E+00
     -8.782  0.1527E+00  0.1527E+00  0.4206E+00  0.4206E+00
     -8.699  0.2430E+00  0.2430E+00  0.4407E+00  0.4407E+00
     -8.617  0.2777E+00  0.2777E+00  0.4636E+00  0.4636E+00
     -8.534  0.2281E+00  0.2281E+00  0.4824E+00  0.4824E+00
     -8.452  0.1347E+00  0.1347E+00  0.4935E+00  0.4935E+00
     -8.369  0.5751E-01  0.5752E-01  0.4982E+00  0.4982E+00
     -8.287  0.2053E-01  0.2053E-01  0.4999E+00  0.4999E+00
     -8.205  0.2077E-01  0.2076E-01  0.5016E+00  0.5016E+00
     -8.122  0.6633E-01  0.6629E-01  0.5071E+00  0.5071E+00
     -8.040  0.1829E+00  0.1828E+00  0.5222E+00  0.5222E+00
     -7.957  0.3654E+00  0.3653E+00  0.5523E+00  0.5523E+00
     -7.875  0.5247E+00  0.5247E+00  0.5956E+00  0.5956E+00
     -7.792  0.5414E+00  0.5414E+00  0.6402E+00  0.6402E+00
     -7.710  0.4014E+00  0.4015E+00  0.6733E+00  0.6733E+00
     -7.627  0.2139E+00  0.2140E+00  0.6910E+00  0.6910E+00
     -7.545  0.8186E-01  0.8190E-01  0.6977E+00  0.6977E+00
     -7.462  0.2250E-01  0.2252E-01  0.6996E+00  0.6996E+00
     -7.380  0.4440E-02  0.4444E-02  0.6999E+00  0.6999E+00
     -7.298  0.6288E-03  0.6294E-03  0.7000E+00  0.7000E+00
     -7.215  0.6387E-04  0.6395E-04  0.7000E+00  0.7000E+00
     -7.133  0.4651E-05  0.4657E-05  0.7000E+00  0.7000E+00
     -7.050  0.2427E-06  0.2431E-06  0.7000E+00  0.7000E+00
     -6.968  0.9070E-08  0.9086E-08  0.7000E+00  0.7000E+00
     -6.885  0.2426E-09  0.2431E-09  0.7000E+00  0.7000E+00
     -6.803  0.4645E-11  0.4654E-11  0.7000E+00  0.7000E+00
     -6.720  0.6355E-13  0.6369E-13  0.7000E+00  0.7000E+00
     -6.638  0.5386E-15  0.5386E-15  0.7000E+00  0.7000E+00
     -6.555  0.0000E+00  0.0000E+00  0.7000E+00  0.7000E+00
     -6.473  0.0000E+00  0.0000E+00  0.7000E+00  0.7000E+00
     -6.391  0.0000E+00  0.0000E+00  0.7000E+00  0.7000E+00
     -6.308  0.0000E+00  0.0000E+00  0.7000E+00  0.7000E+00
     -6.226  0.0000E+00  0.0000E+00  0.7000E+00  0.7000E+00
     -6.143  0.0000E+00  0.0000E+00  0.7000E+00  0.7000E+00
     -6.061  0.0000E+00  0.0000E+00  0.7000E+00  0.7000E+00
     -5.978  0.0000E+00  0.0000E+00  0.7000E+00  0.7000E+00
     -5.896  0.0000E+00  0.0000E+00  0.7000E+00  0.7000E+00
     -5.813  0.0000E+00  0.0000E+00  0.7000E+00  0.7000E+00
     -5.731  0.0000E+00  0.0000E+00  0.7000E+00  0.7000E+00
     -5.648  0.0000E+00  0.0000E+00  0.7000E+00  0.7000E+00
     -5.566  0.0000E+00  0.0000E+00  0.7000E+00  0.7000E+00
     -5.483  0.0000E+00  0.0000E+00  0.7000E+00  0.7000E+00
     -5.401  0.0000E+00  0.0000E+00  0.7000E+00  0.7000E+00
     -5.319  0.0000E+00  0.0000E+00  0.7000E+00  0.7000E+00
     -5.236  0.0000E+00  0.0000E+00  0.7000E+00  0.7000E+00
     -5.154  0.0000E+00  0.0000E+00  0.7000E+00  0.7000E+00
     -5.071  0.0000E+00  0.0000E+00  0.7000E+00  0.7000E+00
     -4.989  0.0000E+00  0.0000E+00  0.7000E+00  0.7000E+00
     -4.906  0.0000E+00  0.0000E+00  0.7000E+00  0.7000E+00
     -4.824  0.0000E+00  0.0000E+00  0.7000E+00  0.7000E+00
     -4.741  0.0000E+00  0.0000E+00  0.7000E+00  0.7000E+00
     -4.659  0.0000E+00  0.0000E+00  0.7000E+00  0.7000E+00
     -4.576  0.0000E+00  0.0000E+00  0.7000E+00  0.7000E+00
     -4.494  0.0000E+00  0.0000E+00  0.7000E+00  0.7000E+00
     -4.412  0.0000E+00  0.0000E+00  0.7000E+00  0.7000E+00
     -4.329  0.0000E+00  0.0000E+00  0.7000E+00  0.7000E+00
     -4.247  0.0000E+00  0.0000E+00  0.7000E+00  0.7000E+00
     -4.164  0.0000E+00  0.0000E+00  0.7000E+00  0.7000E+00
     -4.082  0.0000E+00  0.0000E+00  0.7000E+00  0.7000E+00
     -3.999  0.0000E+00  0.0000E+00  0.7000E+00  0.7000E+00
     -3.917  0.0000E+00  0.0000E+00  0.7000E+00  0.7000E+00
     -3.834  0.0000E+00  0.0000E+00  0.7000E+00  0.7000E+00
     -3.752  0.0000E+00  0.0000E+00  0.7000E+00  0.7000E+00
     -3.669  0.0000E+00  0.0000E+00  0.7000E+00  0.7000E+00
     -3.587  0.0000E+00  0.0000E+00  0.7000E+00  0.7000E+00
     -3.505  0.0000E+00  0.0000E+00  0.7000E+00  0.7000E+00
     -3.422  0.0000E+00  0.0000E+00  0.7000E+00  0.7000E+00
     -3.340  0.0000E+00  0.0000E+00  0.7000E+00  0.7000E+00
     -3.257  0.0000E+00  0.0000E+00  0.7000E+00  0.7000E+00
     -3.175  0.0000E+00  0.0000E+00  0.7000E+00  0.7000E+00
     -3.092  0.0000E+00  0.0000E+00  0.7000E+00  0.7000E+00
     -3.010  0.0000E+00  0.0000E+00  0.7000E+00  0.7000E+00
     -2.927  0.0000E+00  0.0000E+00  0.7000E+00  0.7000E+00
     -2.845  0.0000E+00  0.0000E+00  0.7000E+00  0.7000E+00
     -2.762  0.0000E+00  0.0000E+00  0.7000E+00  0.7000E+00
     -2.680  0.0000E+00  0.0000E+00  0.7000E+00  0.7000E+00
     -2.598  0.0000E+00  0.0000E+00  0.7000E+00  0.7000E+00
     -2.515  0.0000E+00  0.0000E+00  0.7000E+00  0.7000E+00
     -2.433  0.0000E+00  0.0000E+00  0.7000E+00  0.7000E+00
     -2.350  0.0000E+00  0.0000E+00  0.7000E+00  0.7000E+00
     -2.268  0.0000E+00  0.0000E+00  0.7000E+00  0.7000E+00
     -2.185  0.0000E+00  0.0000E+00  0.7000E+00  0.7000E+00
     -2.103  0.0000E+00  0.0000E+00  0.7000E+00  0.7000E+00
     -2.020  0.0000E+00  0.0000E+00  0.7000E+00  0.7000E+00
     -1.938  0.0000E+00  0.0000E+00  0.7000E+00  0.7000E+00
     -1.855  0.0000E+00  0.0000E+00  0.7000E+00  0.7000E+00
     -1.773  0.0000E+00  0.0000E+00  0.7000E+00  0.7000E+00
     -1.690  0.0000E+00  0.0000E+00  0.7000E+00  0.7000E+00
     -1.608  0.3097E-14  0.3097E-14  0.7000E+00  0.7000E+00
     -1.526  0.2644E-12  0.2668E-12  0.7000E+00  0.7000E+00
     -1.443  0.1642E-10  0.1656E-10  0.7000E+00  0.7000E+00
     -1.361  0.7295E-09  0.7351E-09  0.7000E+00  0.7000E+00
     -1.278  0.2319E-07  0.2336E-07  0.7000E+00  0.7000E+00
     -1.196  0.5280E-06  0.5314E-06  0.7000E+00  0.7000E+00
     -1.113  0.8612E-05  0.8660E-05  0.7000E+00  0.7000E+00
     -1.031  0.1007E-03  0.1012E-03  0.7000E+00  0.7000E+00
     -0.948  0.8438E-03  0.8473E-03  0.7001E+00  0.7001E+00
     -0.866  0.5074E-02  0.5092E-02  0.7005E+00  0.7005E+00
     -0.783  0.2190E-01  0.2196E-01  0.7023E+00  0.7023E+00
     -0.701  0.6789E-01  0.6803E-01  0.7079E+00  0.7079E+00
     -0.619  0.1511E+00  0.1513E+00  0.7204E+00  0.7204E+00
     -0.536  0.2418E+00  0.2419E+00  0.7403E+00  0.7403E+00
     -0.454  0.2779E+00  0.2778E+00  0.7632E+00  0.7633E+00
     -0.371  0.2295E+00  0.2293E+00  0.7821E+00  0.7822E+00
     -0.289  0.1362E+00  0.1360E+00  0.7934E+00  0.7934E+00
     -0.206  0.5808E-01  0.5795E-01  0.7982E+00  0.7982E+00
     -0.124  0.1779E-01  0.1774E-01  0.7996E+00  0.7996E+00
     -0.041  0.3912E-02  0.3898E-02  0.7999E+00  0.7999E+00
      0.041  0.6212E-03  0.6186E-03  0.8000E+00  0.8000E+00
      0.124  0.1202E-03  0.1198E-03  0.8000E+00  0.8000E+00
      0.206  0.4722E-03  0.4720E-03  0.8000E+00  0.8000E+00
      0.288  0.3111E-02  0.3110E-02  0.8003E+00  0.8003E+00
      0.371  0.1498E-01  0.1498E-01  0.8015E+00  0.8015E+00
      0.453  0.5257E-01  0.5257E-01  0.8059E+00  0.8059E+00
      0.536  0.1369E+00  0.1370E+00  0.8172E+00  0.8172E+00
      0.618  0.2750E+00  0.2752E+00  0.8398E+00  0.8399E+00
      0.701  0.4530E+00  0.4536E+00  0.8772E+00  0.8773E+00
      0.783  0.6565E+00  0.6576E+00  0.9313E+00  0.9315E+00
      0.866  0.8629E+00  0.8642E+00  0.1002E+01  0.1003E+01
      0.948  0.1005E+01  0.1006E+01  0.1085E+01  0.1086E+01
      1.031  0.1003E+01  0.1002E+01  0.1168E+01  0.1168E+01
      1.113  0.8558E+00  0.8542E+00  0.1239E+01  0.1239E+01
      1.195  0.6569E+00  0.6548E+00  0.1293E+01  0.1293E+01
      1.278  0.4928E+00  0.4913E+00  0.1333E+01  0.1333E+01
      1.360  0.3663E+00  0.3659E+00  0.1364E+01  0.1363E+01
      1.443  0.2449E+00  0.2454E+00  0.1384E+01  0.1384E+01
      1.525  0.1384E+00  0.1391E+00  0.1395E+01  0.1395E+01
      1.608  0.8697E-01  0.8749E-01  0.1402E+01  0.1402E+01
      1.690  0.1119E+00  0.1122E+00  0.1412E+01  0.1412E+01
      1.773  0.1926E+00  0.1928E+00  0.1427E+01  0.1428E+01
      1.855  0.2663E+00  0.2664E+00  0.1449E+01  0.1449E+01
      1.938  0.2685E+00  0.2684E+00  0.1472E+01  0.1472E+01
      2.020  0.1971E+00  0.1969E+00  0.1488E+01  0.1488E+01
      2.102  0.1154E+00  0.1150E+00  0.1497E+01  0.1497E+01
      2.185  0.8706E-01  0.8652E-01  0.1505E+01  0.1504E+01
      2.267  0.1319E+00  0.1311E+00  0.1515E+01  0.1515E+01
      2.350  0.2180E+00  0.2173E+00  0.1533E+01  0.1533E+01
      2.432  0.2759E+00  0.2757E+00  0.1556E+01  0.1556E+01
      2.515  0.2526E+00  0.2532E+00  0.1577E+01  0.1577E+01
      2.597  0.1664E+00  0.1672E+00  0.1591E+01  0.1591E+01
      2.680  0.7873E-01  0.7934E-01  0.1597E+01  0.1597E+01
      2.762  0.2676E-01  0.2704E-01  0.1599E+01  0.1599E+01
      2.845  0.6533E-02  0.6620E-02  0.1600E+01  0.1600E+01
      2.927  0.1145E-02  0.1163E-02  0.1600E+01  0.1600E+01
      3.010  0.1439E-03  0.1466E-03  0.1600E+01  0.1600E+01
      3.092  0.1297E-04  0.1326E-04  0.1600E+01  0.1600E+01
      3.174  0.8384E-06  0.8592E-06  0.1600E+01  0.1600E+01
      3.257  0.3882E-07  0.3989E-07  0.1600E+01  0.1600E+01
      3.339  0.1287E-08  0.1326E-08  0.1600E+01  0.1600E+01
      3.422  0.3054E-10  0.3156E-10  0.1600E+01  0.1600E+01
      3.504  0.5184E-12  0.5372E-12  0.1600E+01  0.1600E+01
      3.587  0.6328E-14  0.6598E-14  0.1600E+01  0.1600E+01
      3.669  0.0000E+00  0.0000E+00  0.1600E+01  0.1600E+01
      3.752  0.0000E+00  0.0000E+00  0.1600E+01  0.1600E+01
      3.834  0.0000E+00  0.0000E+00  0.1600E+01  0.1600E+01
      3.917  0.0000E+00  0.0000E+00  0.1600E+01  0.1600E+01
      3.999  0.0000E+00  0.0000E+00  0.1600E+01  0.1600E+01
      4.081  0.0000E+00  0.0000E+00  0.1600E+01  0.1600E+01
      4.164  0.0000E+00  0.0000E+00  0.1600E+01  0.1600E+01
      4.246  0.0000E+00  0.0000E+00  0.1600E+01  0.1600E+01
      4.329  0.0000E+00  0.0000E+00  0.1600E+01  0.1600E+01
      4.411  0.0000E+00  0.0000E+00  0.1600E+01  0.1600E+01
