    8    8   10    2
  0.1250000E+03  0.1000000E-08  0.1000000E-08  0.1000000E-08  0.5000000E-15
  1.000000000000000E-004
  CAR 
 unknown system                          
   14    1   16
 
  0.0000000E+00  0.0000000E+00  0.0000000E+00  0.1000000E+01
   1      -18.325667    -18.325607
   2      -14.748689    -14.748619
   3      -10.271571    -10.271530
   4      -10.271389    -10.271342
   5       -8.665939     -8.665932
   6       -7.867093     -7.867053
   7       -7.866746     -7.866704
   8       -0.501368     -0.501543
   9        0.677485      0.677507
  10        0.887498      0.887235
  11        0.887959      0.887726
  12        1.005881      1.005345
  13        1.065644      1.065237
  14        1.301606      1.302286
  15        1.857164      1.856993
  16        2.410585      2.411281
