       N       E                     dE             d eps       ncg     rms          rms(c)
DAV:   1     0.385901028458E+02    0.38590E+02   -0.34733E+03    88   0.350E+02
DAV:   2    -0.250048726047E+02   -0.63595E+02   -0.57627E+02    96   0.981E+01
DAV:   3    -0.337086101856E+02   -0.87037E+01   -0.86650E+01    96   0.388E+01
DAV:   4    -0.340667597367E+02   -0.35815E+00   -0.35789E+00    96   0.899E+00
DAV:   5    -0.340761527936E+02   -0.93931E-02   -0.93929E-02    72   0.132E+00    0.186E+01
DAV:   6    -0.157397499577E+02    0.18336E+02   -0.56131E+01    96   0.349E+01    0.780E+00
DAV:   7    -0.334853287869E+02   -0.17746E+02   -0.17103E+01    80   0.161E+01    0.408E+00
DAV:   8    -0.367478387760E+02   -0.32625E+01   -0.80172E-01    72   0.513E+00    0.237E+00
DAV:   9    -0.401857315408E+02   -0.34379E+01   -0.19973E+00    96   0.508E+00    0.462E-01
DAV:  10    -0.404142398048E+02   -0.22851E+00   -0.16172E-01    72   0.151E+00    0.261E-01
DAV:  11    -0.404230172989E+02   -0.87775E-02   -0.10597E-02    80   0.617E-01    0.171E-01
DAV:  12    -0.404082013767E+02    0.14816E-01   -0.11324E-02    64   0.495E-01    0.120E-01
DAV:  13    -0.404066373583E+02    0.15640E-02   -0.19795E-03    64   0.199E-01    0.715E-02
DAV:  14    -0.404249311335E+02   -0.18294E-01   -0.29011E-03    64   0.210E-01    0.492E-02
DAV:  15    -0.404290791797E+02   -0.41480E-02   -0.73471E-04    80   0.125E-01    0.301E-02
DAV:  16    -0.404333544968E+02   -0.42753E-02   -0.65194E-04    64   0.114E-01    0.209E-02
DAV:  17    -0.404360504608E+02   -0.26960E-02   -0.43203E-04    64   0.812E-02    0.145E-02
DAV:  18    -0.404369886842E+02   -0.93822E-03   -0.82357E-05    72   0.454E-02    0.831E-03
DAV:  19    -0.404372116889E+02   -0.22300E-03   -0.12397E-05    72   0.199E-02    0.438E-03
DAV:  20    -0.404374171425E+02   -0.20545E-03   -0.18479E-05    72   0.195E-02    0.415E-03
DAV:  21    -0.404374998362E+02   -0.82694E-04   -0.56764E-06    64   0.115E-02
   1 F= -.40437500E+02 E0= -.40437500E+02  d E =-.404375E+02  mag=     0.0001
       N       E                     dE             d eps       ncg     rms          rms(c)
DAV:   1    -0.404303538843E+02    0.70633E-02   -0.19334E+00    72   0.856E+00    0.469E-01
DAV:   2    -0.404276319754E+02    0.27219E-02   -0.34297E-02    80   0.914E-01    0.272E-01
DAV:   3    -0.404262340932E+02    0.13979E-02   -0.87720E-03    72   0.438E-01    0.692E-02
DAV:   4    -0.404262001871E+02    0.33906E-04   -0.96050E-04    72   0.144E-01
   2 F= -.40426200E+02 E0= -.40426200E+02  d E =0.112996E-01  mag=     0.0000
       N       E                     dE             d eps       ncg     rms          rms(c)
DAV:   1    -0.404461333754E+02   -0.19899E-01   -0.76155E-01    80   0.536E+00    0.291E-01
DAV:   2    -0.404450761205E+02    0.10573E-02   -0.11529E-02    64   0.549E-01    0.172E-01
DAV:   3    -0.404445706043E+02    0.50552E-03   -0.39965E-03    80   0.291E-01    0.478E-02
DAV:   4    -0.404445190877E+02    0.51517E-04   -0.45036E-04    80   0.974E-02
   3 F= -.40444519E+02 E0= -.40444519E+02  d E =-.701925E-02  mag=     0.0000
       N       E                     dE             d eps       ncg     rms          rms(c)
DAV:   1    -0.404473642775E+02   -0.27937E-02   -0.36902E-01    64   0.364E+00    0.170E-01
DAV:   2    -0.404465489160E+02    0.81536E-03   -0.32987E-03    64   0.367E-01    0.921E-02
DAV:   3    -0.404464722203E+02    0.76696E-04   -0.32828E-03    80   0.253E-01    0.480E-02
DAV:   4    -0.404463901378E+02    0.82082E-04   -0.36555E-04    80   0.853E-02
   4 F= -.40446390E+02 E0= -.40446390E+02  d E =-.187105E-02  mag=     0.0000
       N       E                     dE             d eps       ncg     rms          rms(c)
DAV:   1    -0.404468250380E+02   -0.35282E-03   -0.28961E-02    64   0.102E+00    0.528E-02
DAV:   2    -0.404467374212E+02    0.87617E-04   -0.28820E-04    96   0.107E-01
   5 F= -.40446737E+02 E0= -.40446737E+02  d E =-.221833E-02  mag=     0.0000
