 vasp.5.2.12 11Nov11 complex                                                    
  
 executed on             LinuxIFC date 2012.10.31  13:28:57
 running on    1 nodes
 distr:  one band on    1 nodes,    1 groups


--------------------------------------------------------------------------------------------------------


 INCAR:
 POTCAR:   PAW_PBE H 15Jun2001                    
 POTCAR:   PAW_PBE C 08Apr2002                    
 POTCAR:   PAW_PBE H 15Jun2001                    
   VRHFIN =H: ultrasoft test                                                    
   LEXCH  = PE                                                                  
   EATOM  =    12.4884 eV,     .9179 Ry                                         
                                                                                
   TITEL  = PAW_PBE H 15Jun2001                                                 
   LULTRA =        F    use ultrasoft PP ?                                      
   IUNSCR =        0    unscreen: 0-lin 1-nonlin 2-no                           
   RPACOR =     .000    partial core radius                                     
   POMASS =    1.000; ZVAL   =    1.000    mass and valenz                      
   RCORE  =    1.100    outmost cutoff radius                                   
   RWIGS  =     .700; RWIGS  =     .370    wigner-seitz radius (au A)           
   ENMAX  =  250.000; ENMIN  =  200.000 eV                                      
   RCLOC  =     .701    cutoff for local pot                                    
   LCOR   =        T    correct aug charges                                     
   LPAW   =        T    paw PP                                                  
   EAUG   =  400.000                                                            
   RMAX   =    2.174    core radius for proj-oper                               
   RAUG   =    1.200    factor for augmentation sphere                          
   RDEP   =    1.112    radius for radial grids                                 
   QCUT   =   -5.749; QGAM   =   11.498    optimization parameters              
                                                                                
   Description                                                                  
     l     E      TYP  RCUT    TYP  RCUT                                        
     0   .000     23  1.100                                                     
     0   .500     23  1.100                                                     
     1  -.300     23  1.100                                                     
  local pseudopotential read in
  atomic valenz-charges read in
  non local Contribution for L=           0  read in
    real space projection operators read in
  non local Contribution for L=           0  read in
    real space projection operators read in
  non local Contribution for L=           1  read in
    real space projection operators read in
    PAW grid and wavefunctions read in
 
   number of l-projection  operators is LMAX  =           3
   number of lm-projection operators is LMMAX =           5
 
 POTCAR:   PAW_PBE C 08Apr2002                    
   VRHFIN =C: s2p2                                                              
   LEXCH  = PE                                                                  
   EATOM  =   147.1560 eV,   10.8157 Ry                                         
                                                                                
   TITEL  = PAW_PBE C 08Apr2002                                                 
   LULTRA =        F    use ultrasoft PP ?                                      
   IUNSCR =        0    unscreen: 0-lin 1-nonlin 2-no                           
   RPACOR =     .000    partial core radius                                     
   POMASS =   12.011; ZVAL   =    4.000    mass and valenz                      
   RCORE  =    1.500    outmost cutoff radius                                   
   RWIGS  =    1.630; RWIGS  =     .863    wigner-seitz radius (au A)           
   ENMAX  =  400.000; ENMIN  =  300.000 eV                                      
   ICORE  =        2    local potential                                         
   LCOR   =        T    correct aug charges                                     
   LPAW   =        T    paw PP                                                  
   EAUG   =  644.873                                                            
   DEXC   =     .000                                                            
   RMAX   =    2.266    core radius for proj-oper                               
   RAUG   =    1.300    factor for augmentation sphere                          
   RDEP   =    1.501    radius for radial grids                                 
   RDEPT  =    1.300    core radius for aug-charge                              
   QCUT   =   -5.516; QGAM   =   11.032    optimization parameters              
                                                                                
   Description                                                                  
     l     E      TYP  RCUT    TYP  RCUT                                        
     0   .000     23  1.200                                                     
     0   .000     23  1.200                                                     
     1   .000     23  1.500                                                     
     1  2.500     23  1.500                                                     
     2   .000      7  1.500                                                     
  local pseudopotential read in
  atomic valenz-charges read in
  non local Contribution for L=           0  read in
    real space projection operators read in
  non local Contribution for L=           0  read in
    real space projection operators read in
  non local Contribution for L=           1  read in
    real space projection operators read in
  non local Contribution for L=           1  read in
    real space projection operators read in
    PAW grid and wavefunctions read in
 
   number of l-projection  operators is LMAX  =           4
   number of lm-projection operators is LMMAX =           8
 
 PAW_PBE H 15Jun2001                    :
 energy of atom  1       EATOM=  -12.4884
 kinetic energy error for atom=    0.0203 (will be added to EATOM!!)
 PAW_PBE C 08Apr2002                    :
 energy of atom  2       EATOM= -147.1560
 kinetic energy error for atom=    0.0854 (will be added to EATOM!!)
 
 
 POSCAR:  H  C                                   
  positions in cartesian coordinates
  No initial velocities read in
 exchange correlation table for  LEXCH =        8
   RHO(1)=    0.500       N(1)  =     2000
   RHO(2)=  100.500       N(2)  =     4000
 


--------------------------------------------------------------------------------------------------------


 ion  position               nearest neighbor table
   1  0.500  0.602  0.616-   7 1.09
   2  0.412  0.449  0.616-   7 1.09
   3  0.588  0.449  0.616-   7 1.09
   4  0.500  0.398  0.384-   8 1.09
   5  0.412  0.551  0.384-   8 1.09
   6  0.588  0.551  0.384-   8 1.09
   7  0.500  0.500  0.576-   1 1.09   2 1.09   3 1.09   8 1.52
   8  0.500  0.500  0.424-   4 1.09   5 1.09   6 1.09   7 1.52
 
  LATTYP: Found a simple cubic cell.
 ALAT       =    10.0000000000
  
  Lattice vectors:
  
 A1 = (  10.0000000000,   0.0000000000,   0.0000000000)
 A2 = (   0.0000000000,  10.0000000000,   0.0000000000)
 A3 = (   0.0000000000,   0.0000000000,  10.0000000000)
 Subroutine PRICEL returns:
 Original cell was already a primitive cell.
 

Analysis of symmetry for initial positions (statically):

 Routine SETGRP: Setting up the symmetry group for a 
 simple cubic supercell.


 Subroutine GETGRP returns: Found  4 space group operations
 (whereof  4 operations were pure point group operations)
 out of a pool of 48 trial point group operations.


The static configuration has the point symmetry C_2h.

Analysis of symmetry for dynamics (positions and initial velocities):

 Subroutine DYNSYM returns: Found  4 space group operations
 (whereof  4 operations were pure point group operations)
 out of a pool of  4 trial space group operations
 (whereof  4 operations were pure point group operations)
 and found also     1 'primitive' translations


The dynamic configuration has the point symmetry C_2h.

Analysis of magnetic symmetry:

 Subroutine MAGSYM returns: Found  4 space group operations
 (whereof  4 operations were pure point group operations)
 out of a pool of  4 trial space group operations
 (whereof  4 operations were pure point group operations)
 and found also     1 'primitive' translations


The magnetic configuration has the point symmetry C_2h.
 
 
 KPOINTS: KPOINTS created by Atomic Simulation Env

Automatic generation of k-mesh.
 
 Subroutine IBZKPT returns following result:
 ===========================================
 
 Found      1 irreducible k-points:
 
 Following reciprocal coordinates:
            Coordinates               Weight
  0.000000  0.000000  0.000000      1.000000
 
 Following cartesian coordinates:
            Coordinates               Weight
  0.000000  0.000000  0.000000      1.000000
 


--------------------------------------------------------------------------------------------------------




 Dimension of arrays:
   k-points           NKPTS =      1   k-points in BZ     NKDIM =      1   number of bands    NBANDS=     16
   number of dos      NEDOS =    301   number of ions     NIONS =      8
   non local maximal  LDIM  =      4   non local SUM 2l+1 LMDIM =      8
   total plane-waves  NPLWV = 110592
   max r-space proj   IRMAX =      1   max aug-charges    IRDMAX=   1504
   dimension x,y,z NGX =    48 NGY =   48 NGZ =   48
   dimension x,y,z NGXF=    96 NGYF=   96 NGZF=   96
   support grid    NGXF=    96 NGYF=   96 NGZF=   96
   ions per type =               6   2
 NGX,Y,Z   is equivalent  to a cutoff of   7.98,  7.98,  7.98 a.u.
 NGXF,Y,Z  is equivalent  to a cutoff of  15.96, 15.96, 15.96 a.u.


 I would recommend the setting:
   dimension x,y,z NGX =    46 NGY =   46 NGZ =   46
 SYSTEM =  unknown system                          
 POSCAR =   H  C                                   

 Startparameter for this run:
   NWRITE =      2    write-flag & timer
   PREC   = normal    normal or accurate (medium, high low for compatibility)
   ISTART =      0    job   : 0-new  1-cont  2-samecut
   ICHARG =      2    charge: 1-file 2-atom 10-const
   ISPIN  =      2    spin polarized calculation?
   LNONCOLLINEAR =      F non collinear calculations
   LSORBIT =      F    spin-orbit coupling
   INIWAV =      1    electr: 0-lowe 1-rand  2-diag
   LASPH  =      F    aspherical Exc in radial PAW
   METAGGA=      F    non-selfconsistent MetaGGA calc.

 Electronic Relaxation 1
   ENCUT  =  350.0 eV  25.72 Ry    5.07 a.u.  15.25 15.25 15.25*2*pi/ulx,y,z
   ENINI  =  350.0     initial cutoff
   ENAUG  =  644.9 eV  augmentation charge cutoff
   NELM   =     60;   NELMIN=  2; NELMDL= -5     # of ELM steps 
   EDIFF  = 0.1E-03   stopping-criterion for ELM
   LREAL  =      F    real-space projection
   NLSPLINE    = F    spline interpolate recip. space projectors
   LCOMPAT=      F    compatible to vasp.4.4
   GGA_COMPAT  = T    GGA compatible to vasp.4.4-vasp.4.6
   LMAXPAW     = -100 max onsite density
   LMAXMIX     =    2 max onsite mixed and CHGCAR
   VOSKOWN=      0    Vosko Wilk Nusair interpolation
   ROPT   =    0.00000   0.00000
 Ionic relaxation
   EDIFFG = 0.1E-02   stopping-criterion for IOM
   NSW    =     10    number of steps for IOM
   NBLOCK =      1;   KBLOCK =     10    inner block; outer block 
   IBRION =      2    ionic relax: 0-MD 1-quasi-New 2-CG
   NFREE  =      1    steps in history (QN), initial steepest desc. (CG)
   ISIF   =      2    stress and relaxation
   IWAVPR =     11    prediction:  0-non 1-charg 2-wave 3-comb
   ISYM   =      2    0-nonsym 1-usesym 2-fastsym
   LCORR  =      T    Harris-Foulkes like correction to forces

   POTIM  = 0.5000    time-step for ionic-motion
   TEIN   =    0.0    initial temperature
   TEBEG  =    0.0;   TEEND  =   0.0 temperature during run
   SMASS  =  -3.00    Nose mass-parameter (am)
   estimated Nose-frequenzy (Omega)   =  0.10E-29 period in steps =****** mass=  -0.229E-26a.u.
   SCALEE = 1.0000    scale energy and forces
   NPACO  =    256;   APACO  = 16.0  distance and # of slots for P.C.
   PSTRESS=    0.0 pullay stress

  Mass of Ions in am
   POMASS =   1.00 12.01
  Ionic Valenz
   ZVAL   =   1.00  4.00
  Atomic Wigner-Seitz radii
   RWIGS  =  -1.00 -1.00
  virtual crystal weights 
   VCA    =   1.00  1.00
   NELECT =      14.0000    total number of electrons
   NUPDOWN=      -1.0000    fix difference up-down

 DOS related values:
   EMIN   =  10.00;   EMAX   =-10.00  energy-range for DOS
   EFERMI =   0.00
   ISMEAR =     0;   SIGMA  =   0.20  broadening in eV -4-tet -1-fermi 0-gaus

 Electronic relaxation 2 (details)
   IALGO  =     38    algorithm
   LDIAG  =      T    sub-space diagonalisation (order eigenvalues)
   LSUBROT=      T    optimize rotation matrix (better conditioning)
   TURBO    =      0    0=normal 1=particle mesh
   IRESTART =      0    0=no restart 2=restart with 2 vectors
   NREBOOT  =      0    no. of reboots
   NMIN     =      0    reboot dimension
   EREF     =   0.00    reference energy to select bands
   IMIX   =      4    mixing-type and parameters
     AMIX     =   0.40;   BMIX     =  1.00
     AMIX_MAG =   1.60;   BMIX_MAG =  1.00
     AMIN     =   0.10
     WC   =   100.;   INIMIX=   1;  MIXPRE=   1

 Intra band minimization:
   WEIMIN = 0.0010     energy-eigenvalue tresh-hold
   EBREAK =  0.16E-05  absolut break condition
   DEPER  =   0.30     relativ break condition  

   TIME   =   0.40     timestep for ELM

  volume/ion in A,a.u.               =     125.00       843.54
  Fermi-wavevector in a.u.,A,eV,Ry     =   0.394564  0.745618  2.118166  0.155681
  Thomas-Fermi vector in A             =   1.339407
 
 Write flags
   LWAVE  =      T    write WAVECAR
   LCHARG =      T    write CHGCAR
   LVTOT  =      F    write LOCPOT, total local potential
   LVHAR  =      F    write LOCPOT, Hartree potential only
   LELF   =      F    write electronic localiz. function (ELF)
   LORBIT =      0    0 simple, 1 ext, 2 COOP (PROOUT)


 Dipole corrections
   LMONO  =      F    monopole corrections only (constant potential shift)
   LDIPOL =      F    correct potential (dipole corrections)
   IDIPOL =      0    1-x, 2-y, 3-z, 4-all directions 
   EPSILON=  1.0000000 bulk dielectric constant

 Exchange correlation treatment:
   GGA     =    --    GGA type
   LEXCH   =     8    internal setting for exchange type
   VOSKOWN=      0    Vosko Wilk Nusair interpolation
   LHFCALC =     F    Hartree Fock is set to
   LHFONE  =     F    Hartree Fock one center treatment
   AEXX    =    0.0000 exact exchange contribution

 Linear response parameters
   LEPSILON=     F    determine dielectric tensor
   LRPA    =     F    only Hartree local field effects (RPA)
   LNABLA  =     F    use nabla operator in PAW spheres
   LVEL    =     F    velocity operator in full k-point grid
   LINTERFAST=   F  fast interpolation
   KINTER  =     0    interpolate to denser k-point grid
   CSHIFT  =0.1000    complex shift for real part using Kramers Kronig
   OMEGAMAX=  -1.0    maximum frequency
   RTIME   =    0.100 relaxation time in fs

 Orbital magnetization related:
   ORBITALMAG=     F  switch on orbital magnetization
   LCHIMAG   =     F  perturbation theory with respect to B field
   DQ        =  0.001000  dq finite difference perturbation B field



--------------------------------------------------------------------------------------------------------


 conjugate gradient relaxation of ions
 charge density and potential will be updated during run
 spin polarized calculation
 Variant of blocked Davidson
 Davidson routine will perform the subspace rotation
 perform sub-space diagonalisation
    after iterative eigenvector-optimisation
 modified Broyden-mixing scheme, WC =      100.0
 initial mixing is a Kerker type mixing with AMIX =  0.4000 and BMIX =      1.0000
 Hartree-type preconditioning will be used
 using additional bands            9
 reciprocal scheme for non local part
 calculate Harris-corrections to forces 
   (improved forces if not selfconsistent)
 use gradient corrections 
 use of overlap-Matrix (Vanderbilt PP)
 Gauss-broadening in eV      SIGMA  =   0.20


--------------------------------------------------------------------------------------------------------


  energy-cutoff  :      350.00
  volume of cell :     1000.00
      direct lattice vectors                 reciprocal lattice vectors
    10.000000000  0.000000000  0.000000000     0.100000000  0.000000000  0.000000000
     0.000000000 10.000000000  0.000000000     0.000000000  0.100000000  0.000000000
     0.000000000  0.000000000 10.000000000     0.000000000  0.000000000  0.100000000

  length of vectors
    10.000000000 10.000000000 10.000000000     0.100000000  0.100000000  0.100000000


 
 k-points in units of 2pi/SCALE and weight: KPOINTS created by Atomic Simulation Env
   0.00000000  0.00000000  0.00000000       1.000
 
 k-points in reciprocal lattice and weights: KPOINTS created by Atomic Simulation Env
   0.00000000  0.00000000  0.00000000       1.000
 
 position of ions in fractional coordinates (direct lattice) 
   0.50000000  0.60189570  0.61572290
   0.41175570  0.44905210  0.61572290
   0.58824430  0.44905210  0.61572290
   0.50000000  0.39810430  0.38427710
   0.41175570  0.55094790  0.38427710
   0.58824430  0.55094790  0.38427710
   0.50000000  0.50000000  0.57622090
   0.50000000  0.50000000  0.42377910
 
 position of ions in cartesian coordinates  (Angst):
   5.00000000  6.01895700  6.15722900
   4.11755700  4.49052100  6.15722900
   5.88244300  4.49052100  6.15722900
   5.00000000  3.98104300  3.84277100
   4.11755700  5.50947900  3.84277100
   5.88244300  5.50947900  3.84277100
   5.00000000  5.00000000  5.76220900
   5.00000000  5.00000000  4.23779100
 


--------------------------------------------------------------------------------------------------------


 k-point  1 :  0.00000.00000.0000  plane waves:   14795

 maximum and minimum number of plane-waves per node :     14795    14795

 maximum number of plane-waves:     14795
 maximum index in each direction: 
   IXMAX=   15   IYMAX=   15   IZMAX=   15
   IXMIN=  -15   IYMIN=  -15   IZMIN=  -15

 WARNING: aliasing errors must be expected set NGX to  62 to avoid them
 WARNING: aliasing errors must be expected set NGY to  62 to avoid them
 WARNING: aliasing errors must be expected set NGZ to  62 to avoid them
 aliasing errors are usually negligible using standard VASP settings
 and one can safely disregard these warnings

 serial   3D FFT for wavefunctions
 parallel 3D FFT for charge:
    minimum data exchange during FFTs selected (reduces bandwidth)


 total amount of memory used by VASP on root node   153049. kBytes
========================================================================

   base      :      30000. kBytes
   nonl-proj :       3787. kBytes
   fftplans  :      30736. kBytes
   grid      :      80879. kBytes
   one-center:         49. kBytes
   wavefun   :       7598. kBytes
 
 Broyden mixing: mesh for mixing (old mesh)
   NGX = 31   NGY = 31   NGZ = 31
  (NGX  = 96   NGY  = 96   NGZ  = 96)
  gives a total of  29791 points

 initial charge density was supplied:
 charge density of overlapping atoms calculated
 number of electron      14.0000000 magnetization       8.0000000
 keeping initial charge density in first step


--------------------------------------------------------------------------------------------------------


 Maximum index for augmentation-charges         1262 (set IRDMAX)


--------------------------------------------------------------------------------------------------------


 First call to EWALD:  gamma=   0.177
 Maximum number of real-space cells 3x 3x 3
 Maximum number of reciprocal cells 3x 3x 3

    FEWALD:  cpu time    0.00: real time    0.00


----------------------------------------- Iteration    1(   1)  ---------------------------------------


    POTLOK:  cpu time    4.17: real time    4.17
    SETDIJ:  cpu time    0.11: real time    0.11
     EDDAV:  cpu time    3.95: real time    3.95
       DOS:  cpu time    0.00: real time    0.00
    --------------------------------------------
      LOOP:  cpu time    8.23: real time    8.32

 eigenvalue-minimisations  :    88
 total energy-change (2. order) : 0.3859010E+02  (-0.3473297E+03)
 number of electron      14.0000000 magnetization       8.0000000
 augmentation part       14.0000000 magnetization       8.0000000

 Free energy of the ion-electron system (eV)
  ---------------------------------------------------
  alpha Z        PSCENC =         0.77500207
  Ewald energy   TEWEN  =       331.18565195
  -1/2 Hartree   DENC   =      -554.44162929
  -exchange  EXHF       =         0.00000000
  -V(xc)+E(xc)   XCENC  =        43.54130606
  PAW double counting   =        78.54218220      -80.87627233
  entropy T*S    EENTRO =        -0.00006309
  eigenvalues    EBANDS =      -149.08611650
  atomic energy  EATOM  =       368.95004178
  ---------------------------------------------------
  free energy    TOTEN  =        38.59010285 eV

  energy without entropy =       38.59016593  energy(sigma->0) =       38.59013439


--------------------------------------------------------------------------------------------------------




----------------------------------------- Iteration    1(   2)  ---------------------------------------


     EDDAV:  cpu time    4.27: real time    4.27
       DOS:  cpu time    0.00: real time    0.00
    --------------------------------------------
      LOOP:  cpu time    4.27: real time    4.28

 eigenvalue-minimisations  :    96
 total energy-change (2. order) :-0.6359498E+02  (-0.5762665E+02)
 number of electron      14.0000000 magnetization       8.0000000
 augmentation part       14.0000000 magnetization       8.0000000

 Free energy of the ion-electron system (eV)
  ---------------------------------------------------
  alpha Z        PSCENC =         0.77500207
  Ewald energy   TEWEN  =       331.18565195
  -1/2 Hartree   DENC   =      -554.44162929
  -exchange  EXHF       =         0.00000000
  -V(xc)+E(xc)   XCENC  =        43.54130606
  PAW double counting   =        78.54218220      -80.87627233
  entropy T*S    EENTRO =         0.00000000
  eigenvalues    EBANDS =      -212.68115504
  atomic energy  EATOM  =       368.95004178
  ---------------------------------------------------
  free energy    TOTEN  =       -25.00487260 eV

  energy without entropy =      -25.00487260  energy(sigma->0) =      -25.00487260


--------------------------------------------------------------------------------------------------------




----------------------------------------- Iteration    1(   3)  ---------------------------------------


     EDDAV:  cpu time    4.40: real time    4.41
       DOS:  cpu time    0.00: real time    0.00
    --------------------------------------------
      LOOP:  cpu time    4.40: real time    4.42

 eigenvalue-minimisations  :    96
 total energy-change (2. order) :-0.8703738E+01  (-0.8665009E+01)
 number of electron      14.0000000 magnetization       8.0000000
 augmentation part       14.0000000 magnetization       8.0000000

 Free energy of the ion-electron system (eV)
  ---------------------------------------------------
  alpha Z        PSCENC =         0.77500207
  Ewald energy   TEWEN  =       331.18565195
  -1/2 Hartree   DENC   =      -554.44162929
  -exchange  EXHF       =         0.00000000
  -V(xc)+E(xc)   XCENC  =        43.54130606
  PAW double counting   =        78.54218220      -80.87627233
  entropy T*S    EENTRO =         0.00000000
  eigenvalues    EBANDS =      -221.38489262
  atomic energy  EATOM  =       368.95004178
  ---------------------------------------------------
  free energy    TOTEN  =       -33.70861019 eV

  energy without entropy =      -33.70861019  energy(sigma->0) =      -33.70861019


--------------------------------------------------------------------------------------------------------




----------------------------------------- Iteration    1(   4)  ---------------------------------------


     EDDAV:  cpu time    4.68: real time    4.68
       DOS:  cpu time    0.00: real time    0.00
    --------------------------------------------
      LOOP:  cpu time    4.68: real time    4.69

 eigenvalue-minimisations  :    96
 total energy-change (2. order) :-0.3581496E+00  (-0.3578933E+00)
 number of electron      14.0000000 magnetization       8.0000000
 augmentation part       14.0000000 magnetization       8.0000000

 Free energy of the ion-electron system (eV)
  ---------------------------------------------------
  alpha Z        PSCENC =         0.77500207
  Ewald energy   TEWEN  =       331.18565195
  -1/2 Hartree   DENC   =      -554.44162929
  -exchange  EXHF       =         0.00000000
  -V(xc)+E(xc)   XCENC  =        43.54130606
  PAW double counting   =        78.54218220      -80.87627233
  entropy T*S    EENTRO =         0.00000000
  eigenvalues    EBANDS =      -221.74304217
  atomic energy  EATOM  =       368.95004178
  ---------------------------------------------------
  free energy    TOTEN  =       -34.06675974 eV

  energy without entropy =      -34.06675974  energy(sigma->0) =      -34.06675974


--------------------------------------------------------------------------------------------------------




----------------------------------------- Iteration    1(   5)  ---------------------------------------


     EDDAV:  cpu time    3.86: real time    3.86
       DOS:  cpu time    0.00: real time    0.00
    CHARGE:  cpu time    0.60: real time    0.60
    MIXING:  cpu time    0.08: real time    0.08
    --------------------------------------------
      LOOP:  cpu time    4.53: real time    4.77

 eigenvalue-minimisations  :    72
 total energy-change (2. order) :-0.9393057E-02  (-0.9392906E-02)
 number of electron      13.9999968 magnetization       4.3770473
 augmentation part        0.3836207 magnetization       4.3761887

 Broyden mixing:
  rms(total) = 0.18629E+01    rms(broyden)= 0.18622E+01
  rms(prec ) = 0.22214E+01
  weight for this iteration     100.00

 Free energy of the ion-electron system (eV)
  ---------------------------------------------------
  alpha Z        PSCENC =         0.77500207
  Ewald energy   TEWEN  =       331.18565195
  -1/2 Hartree   DENC   =      -554.44162929
  -exchange  EXHF       =         0.00000000
  -V(xc)+E(xc)   XCENC  =        43.54130606
  PAW double counting   =        78.54218220      -80.87627233
  entropy T*S    EENTRO =         0.00000000
  eigenvalues    EBANDS =      -221.75243523
  atomic energy  EATOM  =       368.95004178
  ---------------------------------------------------
  free energy    TOTEN  =       -34.07615279 eV

  energy without entropy =      -34.07615279  energy(sigma->0) =      -34.07615279


--------------------------------------------------------------------------------------------------------




----------------------------------------- Iteration    1(   6)  ---------------------------------------


    POTLOK:  cpu time    3.97: real time    3.97
    SETDIJ:  cpu time    0.10: real time    0.10
     EDDAV:  cpu time    4.55: real time    4.55
       DOS:  cpu time    0.00: real time    0.00
    CHARGE:  cpu time    0.52: real time    0.52
    MIXING:  cpu time    0.08: real time    0.08
    --------------------------------------------
      LOOP:  cpu time    9.23: real time    9.25

 eigenvalue-minimisations  :    96
 total energy-change (2. order) : 0.1833640E+02  (-0.5613103E+01)
 number of electron      13.9999978 magnetization       2.2612488
 augmentation part        0.3630600 magnetization       2.2255612

 Broyden mixing:
  rms(total) = 0.77958E+00    rms(broyden)= 0.77887E+00
  rms(prec ) = 0.96644E+00
  weight for this iteration     100.00

 eigenvalues of (default mixing * dielectric matrix)
  average eigenvalue GAMMA=   0.9250
  0.9250

 Free energy of the ion-electron system (eV)
  ---------------------------------------------------
  alpha Z        PSCENC =         0.77500207
  Ewald energy   TEWEN  =       331.18565195
  -1/2 Hartree   DENC   =      -591.71636830
  -exchange  EXHF       =         0.00000000
  -V(xc)+E(xc)   XCENC  =        63.96343465
  PAW double counting   =       133.34536981     -136.04893913
  entropy T*S    EENTRO =         0.00000000
  eigenvalues    EBANDS =      -186.19394278
  atomic energy  EATOM  =       368.95004178
  ---------------------------------------------------
  free energy    TOTEN  =       -15.73974996 eV

  energy without entropy =      -15.73974996  energy(sigma->0) =      -15.73974996


--------------------------------------------------------------------------------------------------------




----------------------------------------- Iteration    1(   7)  ---------------------------------------


    POTLOK:  cpu time    4.03: real time    4.03
    SETDIJ:  cpu time    0.11: real time    0.11
     EDDAV:  cpu time    3.80: real time    3.80
       DOS:  cpu time    0.00: real time    0.00
    CHARGE:  cpu time    0.52: real time    0.52
    MIXING:  cpu time    0.08: real time    0.08
    --------------------------------------------
      LOOP:  cpu time    8.54: real time    8.55

 eigenvalue-minimisations  :    80
 total energy-change (2. order) :-0.1774558E+02  (-0.1710292E+01)
 number of electron      13.9999982 magnetization       1.1369582
 augmentation part        0.3338955 magnetization       1.1199275

 Broyden mixing:
  rms(total) = 0.40756E+00    rms(broyden)= 0.40740E+00
  rms(prec ) = 0.49112E+00
  weight for this iteration     100.00

 eigenvalues of (default mixing * dielectric matrix)
  average eigenvalue GAMMA=   0.9716
  0.9716  0.9716

 Free energy of the ion-electron system (eV)
  ---------------------------------------------------
  alpha Z        PSCENC =         0.77500207
  Ewald energy   TEWEN  =       331.18565195
  -1/2 Hartree   DENC   =      -610.89205094
  -exchange  EXHF       =         0.00000000
  -V(xc)+E(xc)   XCENC  =        50.63453572
  PAW double counting   =       158.40038840     -161.19563385
  entropy T*S    EENTRO =         0.00000000
  eigenvalues    EBANDS =      -171.34326391
  atomic energy  EATOM  =       368.95004178
  ---------------------------------------------------
  free energy    TOTEN  =       -33.48532879 eV

  energy without entropy =      -33.48532879  energy(sigma->0) =      -33.48532879


--------------------------------------------------------------------------------------------------------




----------------------------------------- Iteration    1(   8)  ---------------------------------------


    POTLOK:  cpu time    4.02: real time    4.03
    SETDIJ:  cpu time    0.11: real time    0.11
     EDDAV:  cpu time    3.48: real time    3.48
       DOS:  cpu time    0.00: real time    0.00
    CHARGE:  cpu time    0.53: real time    0.53
    MIXING:  cpu time    0.09: real time    0.09
    --------------------------------------------
      LOOP:  cpu time    8.23: real time    8.27

 eigenvalue-minimisations  :    72
 total energy-change (2. order) :-0.3262510E+01  (-0.8017197E-01)
 number of electron      13.9999982 magnetization       0.2209887
 augmentation part        0.3303283 magnetization       0.2109612

 Broyden mixing:
  rms(total) = 0.23691E+00    rms(broyden)= 0.23689E+00
  rms(prec ) = 0.29149E+00
  weight for this iteration     100.00

 eigenvalues of (default mixing * dielectric matrix)
  average eigenvalue GAMMA=   1.1723
  1.7473  1.0510  0.7186

 Free energy of the ion-electron system (eV)
  ---------------------------------------------------
  alpha Z        PSCENC =         0.77500207
  Ewald energy   TEWEN  =       331.18565195
  -1/2 Hartree   DENC   =      -615.92894527
  -exchange  EXHF       =         0.00000000
  -V(xc)+E(xc)   XCENC  =        47.89706159
  PAW double counting   =       163.66663893     -166.40484270
  entropy T*S    EENTRO =         0.00000000
  eigenvalues    EBANDS =      -166.88844712
  atomic energy  EATOM  =       368.95004178
  ---------------------------------------------------
  free energy    TOTEN  =       -36.74783878 eV

  energy without entropy =      -36.74783878  energy(sigma->0) =      -36.74783878


--------------------------------------------------------------------------------------------------------




----------------------------------------- Iteration    1(   9)  ---------------------------------------


    POTLOK:  cpu time    4.07: real time    4.07
    SETDIJ:  cpu time    0.10: real time    0.10
     EDDAV:  cpu time    4.13: real time    4.13
       DOS:  cpu time    0.00: real time    0.00
    CHARGE:  cpu time    0.51: real time    0.51
    MIXING:  cpu time    0.09: real time    0.09
    --------------------------------------------
      LOOP:  cpu time    8.90: real time    8.92

 eigenvalue-minimisations  :    96
 total energy-change (2. order) :-0.3437893E+01  (-0.1997277E+00)
 number of electron      13.9999982 magnetization       0.0528388
 augmentation part        0.3248658 magnetization       0.0479077

 Broyden mixing:
  rms(total) = 0.46204E-01    rms(broyden)= 0.46129E-01
  rms(prec ) = 0.77421E-01
  weight for this iteration     100.00

 eigenvalues of (default mixing * dielectric matrix)
  average eigenvalue GAMMA=   1.2147
  1.9643  1.3027  0.8290  0.7628

 Free energy of the ion-electron system (eV)
  ---------------------------------------------------
  alpha Z        PSCENC =         0.77500207
  Ewald energy   TEWEN  =       331.18565195
  -1/2 Hartree   DENC   =      -621.67514268
  -exchange  EXHF       =         0.00000000
  -V(xc)+E(xc)   XCENC  =        45.49947920
  PAW double counting   =       168.88421590     -171.58960096
  entropy T*S    EENTRO =         0.00000000
  eigenvalues    EBANDS =      -162.21537879
  atomic energy  EATOM  =       368.95004178
  ---------------------------------------------------
  free energy    TOTEN  =       -40.18573154 eV

  energy without entropy =      -40.18573154  energy(sigma->0) =      -40.18573154


--------------------------------------------------------------------------------------------------------




----------------------------------------- Iteration    1(  10)  ---------------------------------------


    POTLOK:  cpu time    4.08: real time    4.08
    SETDIJ:  cpu time    0.10: real time    0.10
     EDDAV:  cpu time    3.40: real time    3.40
       DOS:  cpu time    0.00: real time    0.00
    CHARGE:  cpu time    0.56: real time    0.56
    MIXING:  cpu time    0.10: real time    0.10
    --------------------------------------------
      LOOP:  cpu time    8.25: real time    9.37

 eigenvalue-minimisations  :    72
 total energy-change (2. order) :-0.2285083E+00  (-0.1617207E-01)
 number of electron      13.9999982 magnetization       0.0244217
 augmentation part        0.3231006 magnetization       0.0236695

 Broyden mixing:
  rms(total) = 0.26141E-01    rms(broyden)= 0.26104E-01
  rms(prec ) = 0.51846E-01
  weight for this iteration     100.00

 eigenvalues of (default mixing * dielectric matrix)
  average eigenvalue GAMMA=   1.1434
  1.9039  1.4731  0.8507  0.8507  0.6386

 Free energy of the ion-electron system (eV)
  ---------------------------------------------------
  alpha Z        PSCENC =         0.77500207
  Ewald energy   TEWEN  =       331.18565195
  -1/2 Hartree   DENC   =      -623.30837302
  -exchange  EXHF       =         0.00000000
  -V(xc)+E(xc)   XCENC  =        45.41830569
  PAW double counting   =       169.75478577     -172.45283694
  entropy T*S    EENTRO =         0.00000000
  eigenvalues    EBANDS =      -160.73681711
  atomic energy  EATOM  =       368.95004178
  ---------------------------------------------------
  free energy    TOTEN  =       -40.41423980 eV

  energy without entropy =      -40.41423980  energy(sigma->0) =      -40.41423980


--------------------------------------------------------------------------------------------------------




----------------------------------------- Iteration    1(  11)  ---------------------------------------


    POTLOK:  cpu time    3.72: real time    3.72
    SETDIJ:  cpu time    0.10: real time    0.10
     EDDAV:  cpu time    3.38: real time    3.38
       DOS:  cpu time    0.00: real time    0.00
    CHARGE:  cpu time    0.48: real time    0.48
    MIXING:  cpu time    0.10: real time    0.10
    --------------------------------------------
      LOOP:  cpu time    7.78: real time    7.79

 eigenvalue-minimisations  :    80
 total energy-change (2. order) :-0.8777494E-02  (-0.1059678E-02)
 number of electron      13.9999983 magnetization      -0.0237405
 augmentation part        0.3228155 magnetization      -0.0240108

 Broyden mixing:
  rms(total) = 0.17091E-01    rms(broyden)= 0.17081E-01
  rms(prec ) = 0.37163E-01
  weight for this iteration     100.00

 eigenvalues of (default mixing * dielectric matrix)
  average eigenvalue GAMMA=   1.2366
  2.0129  2.0129  1.1180  0.8767  0.7613  0.6379

 Free energy of the ion-electron system (eV)
  ---------------------------------------------------
  alpha Z        PSCENC =         0.77500207
  Ewald energy   TEWEN  =       331.18565195
  -1/2 Hartree   DENC   =      -624.30341282
  -exchange  EXHF       =         0.00000000
  -V(xc)+E(xc)   XCENC  =        45.42738413
  PAW double counting   =       169.58364652     -172.27912152
  entropy T*S    EENTRO =         0.00000000
  eigenvalues    EBANDS =      -159.76220940
  atomic energy  EATOM  =       368.95004178
  ---------------------------------------------------
  free energy    TOTEN  =       -40.42301730 eV

  energy without entropy =      -40.42301730  energy(sigma->0) =      -40.42301730


--------------------------------------------------------------------------------------------------------




----------------------------------------- Iteration    1(  12)  ---------------------------------------


    POTLOK:  cpu time    3.72: real time    3.72
    SETDIJ:  cpu time    0.10: real time    0.10
     EDDAV:  cpu time    2.88: real time    2.88
       DOS:  cpu time    0.00: real time    0.00
    CHARGE:  cpu time    0.47: real time    0.48
    MIXING:  cpu time    0.11: real time    0.11
    --------------------------------------------
      LOOP:  cpu time    7.28: real time    7.30

 eigenvalue-minimisations  :    64
 total energy-change (2. order) : 0.1481592E-01  (-0.1132381E-02)
 number of electron      13.9999983 magnetization      -0.0460925
 augmentation part        0.3227484 magnetization      -0.0459139

 Broyden mixing:
  rms(total) = 0.11983E-01    rms(broyden)= 0.11979E-01
  rms(prec ) = 0.24659E-01
  weight for this iteration     100.00

 eigenvalues of (default mixing * dielectric matrix)
  average eigenvalue GAMMA=   1.2178
  2.0487  2.0487  1.2130  0.9261  0.9261  0.6809  0.6809

 Free energy of the ion-electron system (eV)
  ---------------------------------------------------
  alpha Z        PSCENC =         0.77500207
  Ewald energy   TEWEN  =       331.18565195
  -1/2 Hartree   DENC   =      -625.70998170
  -exchange  EXHF       =         0.00000000
  -V(xc)+E(xc)   XCENC  =        45.47072150
  PAW double counting   =       169.64793089     -172.34147965
  entropy T*S    EENTRO =         0.00000000
  eigenvalues    EBANDS =      -158.38608822
  atomic energy  EATOM  =       368.95004178
  ---------------------------------------------------
  free energy    TOTEN  =       -40.40820138 eV

  energy without entropy =      -40.40820138  energy(sigma->0) =      -40.40820138


--------------------------------------------------------------------------------------------------------




----------------------------------------- Iteration    1(  13)  ---------------------------------------


    POTLOK:  cpu time    3.70: real time    3.70
    SETDIJ:  cpu time    0.10: real time    0.10
     EDDAV:  cpu time    2.87: real time    2.87
       DOS:  cpu time    0.00: real time    0.00
    CHARGE:  cpu time    0.47: real time    0.47
    MIXING:  cpu time    0.11: real time    0.12
    --------------------------------------------
      LOOP:  cpu time    7.25: real time    7.27

 eigenvalue-minimisations  :    64
 total energy-change (2. order) : 0.1564018E-02  (-0.1979473E-03)
 number of electron      13.9999983 magnetization      -0.0170131
 augmentation part        0.3224185 magnetization      -0.0168319

 Broyden mixing:
  rms(total) = 0.71532E-02    rms(broyden)= 0.71528E-02
  rms(prec ) = 0.14626E-01
  weight for this iteration     100.00

 eigenvalues of (default mixing * dielectric matrix)
  average eigenvalue GAMMA=   1.3234
  2.9769  1.9651  1.5358  1.0074  0.9521  0.7510  0.7510  0.6480

 Free energy of the ion-electron system (eV)
  ---------------------------------------------------
  alpha Z        PSCENC =         0.77500207
  Ewald energy   TEWEN  =       331.18565195
  -1/2 Hartree   DENC   =      -627.08633528
  -exchange  EXHF       =         0.00000000
  -V(xc)+E(xc)   XCENC  =        45.52308315
  PAW double counting   =       169.87551815     -172.56945898
  entropy T*S    EENTRO =         0.00000000
  eigenvalues    EBANDS =      -157.06014019
  atomic energy  EATOM  =       368.95004178
  ---------------------------------------------------
  free energy    TOTEN  =       -40.40663736 eV

  energy without entropy =      -40.40663736  energy(sigma->0) =      -40.40663736


--------------------------------------------------------------------------------------------------------




----------------------------------------- Iteration    1(  14)  ---------------------------------------


    POTLOK:  cpu time    3.69: real time    3.70
    SETDIJ:  cpu time    0.10: real time    0.10
     EDDAV:  cpu time    2.90: real time    2.90
       DOS:  cpu time    0.00: real time    0.00
    CHARGE:  cpu time    0.48: real time    0.48
    MIXING:  cpu time    0.12: real time    0.12
    --------------------------------------------
      LOOP:  cpu time    7.29: real time    7.31

 eigenvalue-minimisations  :    64
 total energy-change (2. order) :-0.1829378E-01  (-0.2901135E-03)
 number of electron      13.9999983 magnetization       0.0085858
 augmentation part        0.3221458 magnetization       0.0086836

 Broyden mixing:
  rms(total) = 0.49221E-02    rms(broyden)= 0.49215E-02
  rms(prec ) = 0.96570E-02
  weight for this iteration     100.00

 eigenvalues of (default mixing * dielectric matrix)
  average eigenvalue GAMMA=   1.3992
  3.8261  2.0983  1.3386  1.3386  0.9461  0.9461  0.7358  0.7358  0.6274

 Free energy of the ion-electron system (eV)
  ---------------------------------------------------
  alpha Z        PSCENC =         0.77500207
  Ewald energy   TEWEN  =       331.18565195
  -1/2 Hartree   DENC   =      -627.74498179
  -exchange  EXHF       =         0.00000000
  -V(xc)+E(xc)   XCENC  =        45.52452831
  PAW double counting   =       169.60104445     -172.29539269
  entropy T*S    EENTRO =         0.00000000
  eigenvalues    EBANDS =      -156.42082520
  atomic energy  EATOM  =       368.95004178
  ---------------------------------------------------
  free energy    TOTEN  =       -40.42493113 eV

  energy without entropy =      -40.42493113  energy(sigma->0) =      -40.42493113


--------------------------------------------------------------------------------------------------------




----------------------------------------- Iteration    1(  15)  ---------------------------------------


    POTLOK:  cpu time    3.67: real time    3.67
    SETDIJ:  cpu time    0.10: real time    0.10
     EDDAV:  cpu time    3.39: real time    3.39
       DOS:  cpu time    0.00: real time    0.00
    CHARGE:  cpu time    0.47: real time    0.47
    MIXING:  cpu time    0.13: real time    0.13
    --------------------------------------------
      LOOP:  cpu time    7.76: real time    7.77

 eigenvalue-minimisations  :    80
 total energy-change (2. order) :-0.4148046E-02  (-0.7347095E-04)
 number of electron      13.9999983 magnetization       0.0064098
 augmentation part        0.3221856 magnetization       0.0063546

 Broyden mixing:
  rms(total) = 0.30063E-02    rms(broyden)= 0.30060E-02
  rms(prec ) = 0.66501E-02
  weight for this iteration     100.00

 eigenvalues of (default mixing * dielectric matrix)
  average eigenvalue GAMMA=   1.5505
  4.9498  2.3226  1.6447  1.6447  0.9905  0.9392  0.9392  0.7516  0.6997  0.6230

 Free energy of the ion-electron system (eV)
  ---------------------------------------------------
  alpha Z        PSCENC =         0.77500207
  Ewald energy   TEWEN  =       331.18565195
  -1/2 Hartree   DENC   =      -627.63772229
  -exchange  EXHF       =         0.00000000
  -V(xc)+E(xc)   XCENC  =        45.50901958
  PAW double counting   =       169.25298300     -171.94661920
  entropy T*S    EENTRO =         0.00000000
  eigenvalues    EBANDS =      -156.51743607
  atomic energy  EATOM  =       368.95004178
  ---------------------------------------------------
  free energy    TOTEN  =       -40.42907918 eV

  energy without entropy =      -40.42907918  energy(sigma->0) =      -40.42907918


--------------------------------------------------------------------------------------------------------




----------------------------------------- Iteration    1(  16)  ---------------------------------------


    POTLOK:  cpu time    3.70: real time    3.71
    SETDIJ:  cpu time    0.10: real time    0.10
     EDDAV:  cpu time    2.92: real time    2.92
       DOS:  cpu time    0.00: real time    0.00
    CHARGE:  cpu time    0.48: real time    0.48
    MIXING:  cpu time    0.15: real time    0.15
    --------------------------------------------
      LOOP:  cpu time    7.35: real time    7.72

 eigenvalue-minimisations  :    64
 total energy-change (2. order) :-0.4275317E-02  (-0.6519359E-04)
 number of electron      13.9999983 magnetization      -0.0000495
 augmentation part        0.3222296 magnetization      -0.0001111

 Broyden mixing:
  rms(total) = 0.20931E-02    rms(broyden)= 0.20925E-02
  rms(prec ) = 0.40622E-02
  weight for this iteration     100.00

 eigenvalues of (default mixing * dielectric matrix)
  average eigenvalue GAMMA=   1.5624
  5.2996  2.5174  1.9306  1.3358  1.3358  0.9361  0.9361  0.7917  0.7917  0.6925
  0.6187

 Free energy of the ion-electron system (eV)
  ---------------------------------------------------
  alpha Z        PSCENC =         0.77500207
  Ewald energy   TEWEN  =       331.18565195
  -1/2 Hartree   DENC   =      -627.68203840
  -exchange  EXHF       =         0.00000000
  -V(xc)+E(xc)   XCENC  =        45.50538664
  PAW double counting   =       169.12685501     -171.81928483
  entropy T*S    EENTRO =         0.00000000
  eigenvalues    EBANDS =      -156.47496872
  atomic energy  EATOM  =       368.95004178
  ---------------------------------------------------
  free energy    TOTEN  =       -40.43335450 eV

  energy without entropy =      -40.43335450  energy(sigma->0) =      -40.43335450


--------------------------------------------------------------------------------------------------------




----------------------------------------- Iteration    1(  17)  ---------------------------------------


    POTLOK:  cpu time    3.97: real time    3.97
    SETDIJ:  cpu time    0.10: real time    0.10
     EDDAV:  cpu time    2.96: real time    3.03
       DOS:  cpu time    0.00: real time    0.00
    CHARGE:  cpu time    0.48: real time    0.49
    MIXING:  cpu time    0.14: real time    0.14
    --------------------------------------------
      LOOP:  cpu time    7.67: real time    7.75

 eigenvalue-minimisations  :    64
 total energy-change (2. order) :-0.2695964E-02  (-0.4320320E-04)
 number of electron      13.9999983 magnetization      -0.0003971
 augmentation part        0.3221951 magnetization      -0.0004088

 Broyden mixing:
  rms(total) = 0.14521E-02    rms(broyden)= 0.14520E-02
  rms(prec ) = 0.24136E-02
  weight for this iteration     100.00

 eigenvalues of (default mixing * dielectric matrix)
  average eigenvalue GAMMA=   1.6526
  5.5668  3.1754  2.1206  1.6611  1.6611  1.0344  0.9322  0.9322  0.7271  0.7271
  0.6766  0.6161

 Free energy of the ion-electron system (eV)
  ---------------------------------------------------
  alpha Z        PSCENC =         0.77500207
  Ewald energy   TEWEN  =       331.18565195
  -1/2 Hartree   DENC   =      -627.70980779
  -exchange  EXHF       =         0.00000000
  -V(xc)+E(xc)   XCENC  =        45.50278229
  PAW double counting   =       169.19615359     -171.88880049
  entropy T*S    EENTRO =         0.00000000
  eigenvalues    EBANDS =      -156.44707384
  atomic energy  EATOM  =       368.95004178
  ---------------------------------------------------
  free energy    TOTEN  =       -40.43605046 eV

  energy without entropy =      -40.43605046  energy(sigma->0) =      -40.43605046


--------------------------------------------------------------------------------------------------------




----------------------------------------- Iteration    1(  18)  ---------------------------------------


    POTLOK:  cpu time    3.99: real time    3.99
    SETDIJ:  cpu time    0.10: real time    0.10
     EDDAV:  cpu time    3.18: real time    3.19
       DOS:  cpu time    0.00: real time    0.00
    CHARGE:  cpu time    0.50: real time    0.50
    MIXING:  cpu time    0.16: real time    0.16
    --------------------------------------------
      LOOP:  cpu time    7.94: real time    7.96

 eigenvalue-minimisations  :    72
 total energy-change (2. order) :-0.9382234E-03  (-0.8235739E-05)
 number of electron      13.9999983 magnetization      -0.0004712
 augmentation part        0.3221454 magnetization      -0.0004592

 Broyden mixing:
  rms(total) = 0.83054E-03    rms(broyden)= 0.83015E-03
  rms(prec ) = 0.14182E-02
  weight for this iteration     100.00

 eigenvalues of (default mixing * dielectric matrix)
  average eigenvalue GAMMA=   1.7468
  6.7824  3.7916  2.2178  1.8203  1.5450  1.0556  0.9307  0.9307  0.8827  0.7745
  0.7032  0.6179  0.6559

 Free energy of the ion-electron system (eV)
  ---------------------------------------------------
  alpha Z        PSCENC =         0.77500207
  Ewald energy   TEWEN  =       331.18565195
  -1/2 Hartree   DENC   =      -627.70355753
  -exchange  EXHF       =         0.00000000
  -V(xc)+E(xc)   XCENC  =        45.49961943
  PAW double counting   =       169.26319556     -171.95650504
  entropy T*S    EENTRO =         0.00000000
  eigenvalues    EBANDS =      -156.45043691
  atomic energy  EATOM  =       368.95004178
  ---------------------------------------------------
  free energy    TOTEN  =       -40.43698868 eV

  energy without entropy =      -40.43698868  energy(sigma->0) =      -40.43698868


--------------------------------------------------------------------------------------------------------




----------------------------------------- Iteration    1(  19)  ---------------------------------------


    POTLOK:  cpu time    3.97: real time    3.97
    SETDIJ:  cpu time    0.10: real time    0.10
     EDDAV:  cpu time    3.18: real time    3.18
       DOS:  cpu time    0.00: real time    0.00
    CHARGE:  cpu time    0.50: real time    0.50
    MIXING:  cpu time    0.17: real time    0.17
    --------------------------------------------
      LOOP:  cpu time    7.92: real time    7.94

 eigenvalue-minimisations  :    72
 total energy-change (2. order) :-0.2230046E-03  (-0.1239728E-05)
 number of electron      13.9999983 magnetization      -0.0004559
 augmentation part        0.3221562 magnetization      -0.0004512

 Broyden mixing:
  rms(total) = 0.43819E-03    rms(broyden)= 0.43815E-03
  rms(prec ) = 0.79927E-03
  weight for this iteration     100.00

 eigenvalues of (default mixing * dielectric matrix)
  average eigenvalue GAMMA=   1.7411
  7.1585  3.9542  2.2602  1.7412  1.5570  1.1051  0.9978  0.9978  0.9246  0.9246
  0.7737  0.7066  0.6183  0.6555

 Free energy of the ion-electron system (eV)
  ---------------------------------------------------
  alpha Z        PSCENC =         0.77500207
  Ewald energy   TEWEN  =       331.18565195
  -1/2 Hartree   DENC   =      -627.67487311
  -exchange  EXHF       =         0.00000000
  -V(xc)+E(xc)   XCENC  =        45.49788096
  PAW double counting   =       169.25249493     -171.94565301
  entropy T*S    EENTRO =         0.00000000
  eigenvalues    EBANDS =      -156.47775725
  atomic energy  EATOM  =       368.95004178
  ---------------------------------------------------
  free energy    TOTEN  =       -40.43721169 eV

  energy without entropy =      -40.43721169  energy(sigma->0) =      -40.43721169


--------------------------------------------------------------------------------------------------------




----------------------------------------- Iteration    1(  20)  ---------------------------------------


    POTLOK:  cpu time    3.96: real time    3.96
    SETDIJ:  cpu time    0.10: real time    0.10
     EDDAV:  cpu time    3.26: real time    3.26
       DOS:  cpu time    0.00: real time    0.00
    CHARGE:  cpu time    0.50: real time    0.50
    MIXING:  cpu time    0.18: real time    0.18
    --------------------------------------------
      LOOP:  cpu time    8.01: real time    8.03

 eigenvalue-minimisations  :    72
 total energy-change (2. order) :-0.2054536E-03  (-0.1847912E-05)
 number of electron      13.9999983 magnetization      -0.0000634
 augmentation part        0.3221889 magnetization      -0.0000645

 Broyden mixing:
  rms(total) = 0.41532E-03    rms(broyden)= 0.41506E-03
  rms(prec ) = 0.63041E-03
  weight for this iteration     100.00

 eigenvalues of (default mixing * dielectric matrix)
  average eigenvalue GAMMA=   1.8417
  7.6433  4.7353  2.5805  2.0934  1.6212  1.6212  0.9378  0.9378  1.0083  1.0083
  0.7672  0.7056  0.7056  0.6181  0.6411

 Free energy of the ion-electron system (eV)
  ---------------------------------------------------
  alpha Z        PSCENC =         0.77500207
  Ewald energy   TEWEN  =       331.18565195
  -1/2 Hartree   DENC   =      -627.65548554
  -exchange  EXHF       =         0.00000000
  -V(xc)+E(xc)   XCENC  =        45.49715953
  PAW double counting   =       169.23687965     -171.92977502
  entropy T*S    EENTRO =         0.00000000
  eigenvalues    EBANDS =      -156.49689156
  atomic energy  EATOM  =       368.95004178
  ---------------------------------------------------
  free energy    TOTEN  =       -40.43741714 eV

  energy without entropy =      -40.43741714  energy(sigma->0) =      -40.43741714


--------------------------------------------------------------------------------------------------------




----------------------------------------- Iteration    1(  21)  ---------------------------------------


    POTLOK:  cpu time    3.95: real time    3.95
    SETDIJ:  cpu time    0.10: real time    0.11
     EDDAV:  cpu time    2.94: real time    2.94
       DOS:  cpu time    0.00: real time    0.00
    --------------------------------------------
      LOOP:  cpu time    6.99: real time    7.05

 eigenvalue-minimisations  :    64
 total energy-change (2. order) :-0.8269375E-04  (-0.5676368E-06)
 number of electron      13.9999983 magnetization      -0.0000634
 augmentation part        0.3221889 magnetization      -0.0000645

 Free energy of the ion-electron system (eV)
  ---------------------------------------------------
  alpha Z        PSCENC =         0.77500207
  Ewald energy   TEWEN  =       331.18565195
  -1/2 Hartree   DENC   =      -627.66195599
  -exchange  EXHF       =         0.00000000
  -V(xc)+E(xc)   XCENC  =        45.49731663
  PAW double counting   =       169.24666809     -171.93967377
  entropy T*S    EENTRO =         0.00000000
  eigenvalues    EBANDS =      -156.49055059
  atomic energy  EATOM  =       368.95004178
  ---------------------------------------------------
  free energy    TOTEN  =       -40.43749984 eV

  energy without entropy =      -40.43749984  energy(sigma->0) =      -40.43749984


--------------------------------------------------------------------------------------------------------




 average (electrostatic) potential at core
  the test charge radii are     0.5201  0.6991
  (the norm of the test charge is              1.0000)
       1 -41.2665       2 -41.2661       3 -41.2661       4 -41.2665       5 -41.2661
       6 -41.2661       7 -57.9950       8 -57.9950
 
 
 
 E-fermi :  -6.8945     XC(G=0):  -0.9710     alpha+bet : -0.3665


 spin component 1

 k-point   1 :       0.0000    0.0000    0.0000
  band No.  band energies     occupation 
      1     -18.3629      1.00000
      2     -14.8158      1.00000
      3     -10.3080      1.00000
      4     -10.3079      1.00000
      5      -8.6516      1.00000
      6      -7.8997      1.00000
      7      -7.8997      1.00000
      8      -0.4752      0.00000
      9       0.7048      0.00000
     10       0.9084      0.00000
     11       0.9091      0.00000
     12       0.9970      0.00000
     13       1.1240      0.00000
     14       1.2963      0.00000
     15       1.8769      0.00000
     16       2.4253      0.00000

 spin component 2

 k-point   1 :       0.0000    0.0000    0.0000
  band No.  band energies     occupation 
      1     -18.3628      1.00000
      2     -14.8157      1.00000
      3     -10.3079      1.00000
      4     -10.3078      1.00000
      5      -8.6515      1.00000
      6      -7.8997      1.00000
      7      -7.8996      1.00000
      8      -0.4872      0.00000
      9       0.6952      0.00000
     10       0.8965      0.00000
     11       0.8971      0.00000
     12       0.9679      0.00000
     13       1.1145      0.00000
     14       1.2656      0.00000
     15       1.8717      0.00000
     16       2.3789      0.00000


--------------------------------------------------------------------------------------------------------


 soft charge-density along one line, spin component           1
         0         1         2         3         4         5         6         7         8         9
 total charge-density along one line
 
 soft charge-density along one line, spin component           2
         0         1         2         3         4         5         6         7         8         9
 total charge-density along one line
 
 pseudopotential strength for first ion, spin component:           1
 -2.338  -0.010   0.002   0.001   0.000
 -0.010   0.049   0.002   0.001   0.000
  0.002   0.002  -0.335   0.002   0.000
  0.001   0.001   0.002  -0.338   0.000
  0.000   0.000   0.000   0.000  -0.339
 pseudopotential strength for first ion, spin component:           2
 -2.338  -0.010   0.002   0.001   0.000
 -0.010   0.049   0.002   0.001   0.000
  0.002   0.002  -0.335   0.002   0.000
  0.001   0.001   0.002  -0.338   0.000
  0.000   0.000   0.000   0.000  -0.339
 total augmentation occupancy for first ion, spin component:           1
  1.757  -0.620  -0.268  -0.106   0.000
 -0.620   0.277   0.108   0.043   0.000
 -0.268   0.108   0.045   0.014   0.000
 -0.106   0.043   0.014   0.014   0.000
  0.000   0.000   0.000   0.000   0.009
 total augmentation occupancy for first ion, spin component:           2
  0.000   0.000   0.000   0.000   0.000
  0.000   0.000   0.000   0.000   0.000
  0.000   0.000   0.000   0.000   0.000
  0.000   0.000   0.000   0.000   0.000
  0.000   0.000   0.000   0.000   0.000


------------------------ aborting loop because EDIFF is reached ----------------------------------------


    CHARGE:  cpu time    0.51: real time    0.51
    FORLOC:  cpu time    0.20: real time    0.20
    FORNL :  cpu time    0.68: real time    0.68
    STRESS:  cpu time    1.54: real time    1.54
    FORHAR:  cpu time    0.59: real time    0.59
    MIXING:  cpu time    0.17: real time    0.17

  FORCE on cell =-STRESS in cart. coord.  units (eV):
  Direction    XX          YY          ZZ          XY          YZ          ZX
  --------------------------------------------------------------------------------------
  Alpha Z     0.77500     0.77500     0.77500
  Ewald      51.31723    51.31775   228.55052     0.00000    -0.06262     0.00000
  Hartree   163.05023   163.05088   301.59056     0.00000    -0.05027     0.00000
  E(xc)     -48.07853   -48.07852   -48.01454     0.00000     0.00001     0.00000
  Local    -324.33159  -324.33434  -646.54757     0.00000     0.11237     0.00000
  n-local   -26.41715   -26.41860   -25.12057     0.00000    -0.00086     0.00000
  augment    -0.01160    -0.01403     0.04494     0.00000     0.00018     0.00000
  Kinetic   182.84753   182.84326   187.79153     0.00000     0.00111     0.00000
  Fock        0.00000     0.00000     0.00000     0.00000     0.00000     0.00000
  -------------------------------------------------------------------------------------
  Total      -0.84889    -0.85861    -0.93012     0.00000    -0.00009     0.00000
  in kB      -1.36007    -1.37565    -1.49022     0.00000    -0.00014     0.00000
  external pressure =       -1.41 kB  Pullay stress =        0.00 kB


 VOLUME and BASIS-vectors are now :
 -----------------------------------------------------------------------------
  energy-cutoff  :      350.00
  volume of cell :     1000.00
      direct lattice vectors                 reciprocal lattice vectors
    10.000000000  0.000000000  0.000000000     0.100000000  0.000000000  0.000000000
     0.000000000 10.000000000  0.000000000     0.000000000  0.100000000  0.000000000
     0.000000000  0.000000000 10.000000000     0.000000000  0.000000000  0.100000000

  length of vectors
    10.000000000 10.000000000 10.000000000     0.100000000  0.100000000  0.100000000


 FORCES acting on ions
    electron-ion (+dipol)            ewald-force                    non-local-force                 convergence-correction
 -----------------------------------------------------------------------------------------------
   0.237E-13 -.544E+02 -.303E+02   0.346E-15 0.598E+02 0.324E+02   0.000E+00 -.514E+01 -.203E+01   -.795E-14 0.121E-02 0.809E-03
   0.471E+02 0.272E+02 -.303E+02   -.518E+02 -.299E+02 0.324E+02   0.445E+01 0.257E+01 -.203E+01   -.105E-02 -.608E-03 0.807E-03
   -.471E+02 0.272E+02 -.303E+02   0.518E+02 -.299E+02 0.324E+02   -.445E+01 0.257E+01 -.203E+01   0.105E-02 -.608E-03 0.807E-03
   0.246E-13 0.544E+02 0.303E+02   -.738E-15 -.598E+02 -.324E+02   0.000E+00 0.514E+01 0.203E+01   -.101E-13 -.121E-02 -.809E-03
   0.471E+02 -.272E+02 0.303E+02   -.518E+02 0.299E+02 -.324E+02   0.445E+01 -.257E+01 0.203E+01   -.105E-02 0.608E-03 -.807E-03
   -.471E+02 -.272E+02 0.303E+02   0.518E+02 0.299E+02 -.324E+02   -.445E+01 -.257E+01 0.203E+01   0.105E-02 0.608E-03 -.807E-03
   0.991E-13 -.252E-02 -.764E+02   -.217E-13 0.170E-02 0.764E+02   0.000E+00 0.707E-03 -.265E+00   -.507E-13 -.185E-04 0.327E-02
   0.974E-13 0.252E-02 0.764E+02   -.145E-13 -.170E-02 -.764E+02   0.000E+00 -.707E-03 0.265E+00   -.599E-13 0.185E-04 -.327E-02
 -----------------------------------------------------------------------------------------------
   -.223E-12 -.619E-13 0.625E-12   -.650E-15 -.768E-14 0.000E+00   0.000E+00 0.000E+00 0.000E+00   -.152E-12 -.155E-12 -.307E-13
 
 
 POSITION                                       TOTAL-FORCE (eV/Angst)
 -----------------------------------------------------------------------------------
      5.00000      6.01896      6.15723         0.000000      0.279056      0.140455
      4.11756      4.49052      6.15723        -0.240555     -0.139290      0.139746
      5.88244      4.49052      6.15723         0.240555     -0.139290      0.139746
      5.00000      3.98104      3.84277         0.000000     -0.279056     -0.140455
      4.11756      5.50948      3.84277        -0.240555      0.139290     -0.139746
      5.88244      5.50948      3.84277         0.240555      0.139290     -0.139746
      5.00000      5.00000      5.76221         0.000000     -0.000124     -0.300744
      5.00000      5.00000      4.23779         0.000000      0.000124      0.300744
 -----------------------------------------------------------------------------------
    total drift:                                0.000000      0.000000      0.000000


--------------------------------------------------------------------------------------------------------



  FREE ENERGIE OF THE ION-ELECTRON SYSTEM (eV)
  ---------------------------------------------------
  free  energy   TOTEN  =       -40.437500 eV

  energy  without entropy=      -40.437500  energy(sigma->0) =      -40.437500
 


--------------------------------------------------------------------------------------------------------


    POTLOK:  cpu time    4.08: real time    4.08


--------------------------------------------------------------------------------------------------------




--------------------------------------------------------------------------------------------------------


    WAVPRE:  cpu time    0.33: real time    0.34
    FEWALD:  cpu time    0.00: real time    0.00
    ORTHCH:  cpu time    0.15: real time    0.15
     LOOP+:  cpu time  164.17: real time  166.81


----------------------------------------- Iteration    2(   1)  ---------------------------------------


    POTLOK:  cpu time    4.16: real time    4.19
    SETDIJ:  cpu time    0.11: real time    0.11
     EDDAV:  cpu time    3.15: real time    3.15
       DOS:  cpu time    0.00: real time    0.00
    CHARGE:  cpu time    0.50: real time    0.50
    MIXING:  cpu time    0.08: real time    0.08
    --------------------------------------------
      LOOP:  cpu time    8.00: real time    8.14

 eigenvalue-minimisations  :    72
 total energy-change (2. order) : 0.7063258E-02  (-0.1933422E+00)
 number of electron      13.9999973 magnetization       0.0000592
 augmentation part        0.3150260 magnetization       0.0000798

 Broyden mixing:
  rms(total) = 0.46929E-01    rms(broyden)= 0.46869E-01
  rms(prec ) = 0.59938E-01
  weight for this iteration     100.00

 Free energy of the ion-electron system (eV)
  ---------------------------------------------------
  alpha Z        PSCENC =         0.77500207
  Ewald energy   TEWEN  =       327.41178560
  -1/2 Hartree   DENC   =      -625.95414799
  -exchange  EXHF       =         0.00000000
  -V(xc)+E(xc)   XCENC  =        45.36508201
  PAW double counting   =       169.25561931     -171.94875960
  entropy T*S    EENTRO =         0.00000000
  eigenvalues    EBANDS =      -154.28497705
  atomic energy  EATOM  =       368.95004178
  ---------------------------------------------------
  free energy    TOTEN  =       -40.43035388 eV

  energy without entropy =      -40.43035388  energy(sigma->0) =      -40.43035388


--------------------------------------------------------------------------------------------------------




----------------------------------------- Iteration    2(   2)  ---------------------------------------


    POTLOK:  cpu time    4.07: real time    4.07
    SETDIJ:  cpu time    0.11: real time    0.11
     EDDAV:  cpu time    3.34: real time    3.35
       DOS:  cpu time    0.00: real time    0.00
    CHARGE:  cpu time    0.50: real time    0.50
    MIXING:  cpu time    0.08: real time    0.08
    --------------------------------------------
      LOOP:  cpu time    8.10: real time    8.11

 eigenvalue-minimisations  :    80
 total energy-change (2. order) : 0.2721909E-02  (-0.3429685E-02)
 number of electron      13.9999972 magnetization       0.0000068
 augmentation part        0.3156873 magnetization       0.0000422

 Broyden mixing:
  rms(total) = 0.27176E-01    rms(broyden)= 0.27172E-01
  rms(prec ) = 0.33417E-01
  weight for this iteration     100.00

 eigenvalues of (default mixing * dielectric matrix)
  average eigenvalue GAMMA=   2.0215
  2.0215

 Free energy of the ion-electron system (eV)
  ---------------------------------------------------
  alpha Z        PSCENC =         0.77500207
  Ewald energy   TEWEN  =       327.41178560
  -1/2 Hartree   DENC   =      -625.01914310
  -exchange  EXHF       =         0.00000000
  -V(xc)+E(xc)   XCENC  =        45.30897039
  PAW double counting   =       167.02783160     -169.70929437
  entropy T*S    EENTRO =         0.00000000
  eigenvalues    EBANDS =      -155.17282595
  atomic energy  EATOM  =       368.95004178
  ---------------------------------------------------
  free energy    TOTEN  =       -40.42763198 eV

  energy without entropy =      -40.42763198  energy(sigma->0) =      -40.42763198


--------------------------------------------------------------------------------------------------------




----------------------------------------- Iteration    2(   3)  ---------------------------------------


    POTLOK:  cpu time    4.04: real time    4.04
    SETDIJ:  cpu time    0.11: real time    0.11
     EDDAV:  cpu time    3.14: real time    3.14
       DOS:  cpu time    0.00: real time    0.00
    CHARGE:  cpu time    0.51: real time    0.51
    MIXING:  cpu time    0.09: real time    0.09
    --------------------------------------------
      LOOP:  cpu time    7.88: real time    7.90

 eigenvalue-minimisations  :    72
 total energy-change (2. order) : 0.1397882E-02  (-0.8771992E-03)
 number of electron      13.9999972 magnetization       0.0000084
 augmentation part        0.3166410 magnetization      -0.0000097

 Broyden mixing:
  rms(total) = 0.69161E-02    rms(broyden)= 0.69100E-02
  rms(prec ) = 0.90610E-02
  weight for this iteration     100.00

 eigenvalues of (default mixing * dielectric matrix)
  average eigenvalue GAMMA=   1.4248
  1.1551  1.6946

 Free energy of the ion-electron system (eV)
  ---------------------------------------------------
  alpha Z        PSCENC =         0.77500207
  Ewald energy   TEWEN  =       327.41178560
  -1/2 Hartree   DENC   =      -624.21779649
  -exchange  EXHF       =         0.00000000
  -V(xc)+E(xc)   XCENC  =        45.25929990
  PAW double counting   =       164.85133574     -167.52269847
  entropy T*S    EENTRO =         0.00000000
  eigenvalues    EBANDS =      -155.93320423
  atomic energy  EATOM  =       368.95004178
  ---------------------------------------------------
  free energy    TOTEN  =       -40.42623409 eV

  energy without entropy =      -40.42623409  energy(sigma->0) =      -40.42623409


--------------------------------------------------------------------------------------------------------




----------------------------------------- Iteration    2(   4)  ---------------------------------------


    POTLOK:  cpu time    3.98: real time    3.98
    SETDIJ:  cpu time    0.11: real time    0.11
     EDDAV:  cpu time    3.11: real time    3.11
       DOS:  cpu time    0.00: real time    0.00
    --------------------------------------------
      LOOP:  cpu time    7.19: real time    7.25

 eigenvalue-minimisations  :    72
 total energy-change (2. order) : 0.3390612E-04  (-0.9605035E-04)
 number of electron      13.9999972 magnetization       0.0000084
 augmentation part        0.3166410 magnetization      -0.0000097

 Free energy of the ion-electron system (eV)
  ---------------------------------------------------
  alpha Z        PSCENC =         0.77500207
  Ewald energy   TEWEN  =       327.41178560
  -1/2 Hartree   DENC   =      -624.42610792
  -exchange  EXHF       =         0.00000000
  -V(xc)+E(xc)   XCENC  =        45.26892300
  PAW double counting   =       165.15095977     -167.82566250
  entropy T*S    EENTRO =         0.00000000
  eigenvalues    EBANDS =      -155.73114198
  atomic energy  EATOM  =       368.95004178
  ---------------------------------------------------
  free energy    TOTEN  =       -40.42620019 eV

  energy without entropy =      -40.42620019  energy(sigma->0) =      -40.42620019


--------------------------------------------------------------------------------------------------------




 average (electrostatic) potential at core
  the test charge radii are     0.5201  0.6991
  (the norm of the test charge is              1.0000)
       1 -41.1191       2 -41.1193       3 -41.1193       4 -41.1191       5 -41.1193
       6 -41.1193       7 -58.0762       8 -58.0762
 
 
 
 E-fermi :  -6.7874     XC(G=0):  -0.9079     alpha+bet : -0.3665


 spin component 1

 k-point   1 :       0.0000    0.0000    0.0000
  band No.  band energies     occupation 
      1     -18.3991      1.00000
      2     -14.6449      1.00000
      3     -10.2553      1.00000
      4     -10.2553      1.00000
      5      -8.8331      1.00000
      6      -7.7392      1.00000
      7      -7.7392      1.00000
      8      -0.4493      0.00000
      9       0.7042      0.00000
     10       0.9180      0.00000
     11       0.9190      0.00000
     12       1.0332      0.00000
     13       1.1506      0.00000
     14       1.3659      0.00000
     15       1.8957      0.00000
     16       2.4997      0.00000

 spin component 2

 k-point   1 :       0.0000    0.0000    0.0000
  band No.  band energies     occupation 
      1     -18.3991      1.00000
      2     -14.6447      1.00000
      3     -10.2552      1.00000
      4     -10.2552      1.00000
      5      -8.8333      1.00000
      6      -7.7389      1.00000
      7      -7.7388      1.00000
      8      -0.4526      0.00000
      9       0.7020      0.00000
     10       0.9145      0.00000
     11       0.9156      0.00000
     12       1.0196      0.00000
     13       1.1505      0.00000
     14       1.3546      0.00000
     15       1.8953      0.00000
     16       2.4964      0.00000


--------------------------------------------------------------------------------------------------------


 soft charge-density along one line, spin component           1
         0         1         2         3         4         5         6         7         8         9
 total charge-density along one line
 
 soft charge-density along one line, spin component           2
         0         1         2         3         4         5         6         7         8         9
 total charge-density along one line
 
 pseudopotential strength for first ion, spin component:           1
 -2.336  -0.010   0.002   0.001   0.000
 -0.010   0.049   0.002   0.001   0.000
  0.002   0.002  -0.336   0.002   0.000
  0.001   0.001   0.002  -0.339   0.000
  0.000   0.000   0.000   0.000  -0.340
 pseudopotential strength for first ion, spin component:           2
 -2.336  -0.010   0.002   0.001   0.000
 -0.010   0.049   0.002   0.001   0.000
  0.002   0.002  -0.336   0.002   0.000
  0.001   0.001   0.002  -0.339   0.000
  0.000   0.000   0.000   0.000  -0.340
 total augmentation occupancy for first ion, spin component:           1
  1.714  -0.607  -0.251  -0.104   0.000
 -0.607   0.272   0.102   0.042   0.000
 -0.251   0.102   0.041   0.014   0.000
 -0.104   0.042   0.014   0.013   0.000
  0.000   0.000   0.000   0.000   0.008
 total augmentation occupancy for first ion, spin component:           2
  0.000   0.000   0.000   0.000   0.000
  0.000   0.000   0.000   0.000   0.000
  0.000   0.000   0.000   0.000   0.000
  0.000   0.000   0.000   0.000   0.000
  0.000   0.000   0.000   0.000   0.000


------------------------ aborting loop because EDIFF is reached ----------------------------------------


    CHARGE:  cpu time    0.51: real time    0.51
    FORLOC:  cpu time    0.20: real time    0.20
    FORNL :  cpu time    0.69: real time    0.69
    STRESS:  cpu time    1.55: real time    1.55
    FORHAR:  cpu time    0.56: real time    0.56
    MIXING:  cpu time    0.08: real time    0.08

  FORCE on cell =-STRESS in cart. coord.  units (eV):
  Direction    XX          YY          ZZ          XY          YZ          ZX
  --------------------------------------------------------------------------------------
  Alpha Z     0.77500     0.77500     0.77500
  Ewald      47.61727    47.61765   232.17672     0.00000    -0.06981     0.00000
  Hartree   162.38889   162.39340   299.45143     0.00000    -0.05300     0.00000
  E(xc)     -47.83769   -47.83762   -47.74650     0.00000     0.00001     0.00000
  Local    -321.14257  -321.15149  -646.58292     0.00000     0.12091     0.00000
  n-local   -25.73972   -25.74083   -24.63164     0.00000    -0.00084     0.00000
  augment    -0.00298    -0.00617     0.03521     0.00000     0.00008     0.00000
  Kinetic   181.44822   181.44122   185.98094     0.00000     0.00070     0.00000
  Fock        0.00000     0.00000     0.00000     0.00000     0.00000     0.00000
  -------------------------------------------------------------------------------------
  Total      -2.49358    -2.50883    -0.54176     0.00000    -0.00194     0.00000
  in kB      -3.99516    -4.01958    -0.86799     0.00000    -0.00311     0.00000
  external pressure =       -2.96 kB  Pullay stress =        0.00 kB


 VOLUME and BASIS-vectors are now :
 -----------------------------------------------------------------------------
  energy-cutoff  :      350.00
  volume of cell :     1000.00
      direct lattice vectors                 reciprocal lattice vectors
    10.000000000  0.000000000  0.000000000     0.100000000  0.000000000  0.000000000
     0.000000000 10.000000000  0.000000000     0.000000000  0.100000000  0.000000000
     0.000000000  0.000000000 10.000000000     0.000000000  0.000000000  0.100000000

  length of vectors
    10.000000000 10.000000000 10.000000000     0.100000000  0.100000000  0.100000000


 FORCES acting on ions
    electron-ion (+dipol)            ewald-force                    non-local-force                 convergence-correction
 -----------------------------------------------------------------------------------------------
   0.229E-13 -.532E+02 -.304E+02   -.343E-15 0.578E+02 0.323E+02   0.000E+00 -.483E+01 -.200E+01   -.109E-13 -.784E-02 -.152E-02
   0.461E+02 0.266E+02 -.304E+02   -.501E+02 -.289E+02 0.323E+02   0.419E+01 0.242E+01 -.200E+01   0.680E-02 0.386E-02 -.149E-02
   -.461E+02 0.266E+02 -.304E+02   0.501E+02 -.289E+02 0.323E+02   -.419E+01 0.242E+01 -.200E+01   -.680E-02 0.386E-02 -.149E-02
   0.231E-13 0.532E+02 0.304E+02   -.154E-16 -.578E+02 -.323E+02   0.000E+00 0.483E+01 0.200E+01   -.211E-13 0.784E-02 0.152E-02
   0.461E+02 -.266E+02 0.304E+02   -.501E+02 0.289E+02 -.323E+02   0.419E+01 -.242E+01 0.200E+01   0.680E-02 -.386E-02 0.149E-02
   -.461E+02 -.266E+02 0.304E+02   0.501E+02 0.289E+02 -.323E+02   -.419E+01 -.242E+01 0.200E+01   -.680E-02 -.386E-02 0.149E-02
   0.982E-13 -.664E-02 -.797E+02   0.246E-14 0.695E-02 0.804E+02   0.000E+00 0.151E-02 0.355E+00   -.818E-13 -.282E-03 0.315E-01
   0.951E-13 0.664E-02 0.797E+02   -.298E-14 -.695E-02 -.804E+02   0.000E+00 -.151E-02 -.355E+00   -.126E-12 0.282E-03 -.315E-01
 -----------------------------------------------------------------------------------------------
   0.442E-12 0.104E-11 0.146E-11   -.762E-14 -.465E-15 0.000E+00   0.000E+00 0.888E-15 0.555E-16   -.278E-12 -.704E-12 -.304E-12
 
 
 POSITION                                       TOTAL-FORCE (eV/Angst)
 -----------------------------------------------------------------------------------
      5.00000      6.03242      6.16400         0.000000     -0.267650     -0.109152
      4.10595      4.48380      6.16397         0.230734      0.132820     -0.108985
      5.89405      4.48380      6.16397        -0.230734      0.132820     -0.108985
      5.00000      3.96758      3.83600         0.000000      0.267650      0.109152
      4.10595      5.51620      3.83603         0.230734     -0.132820      0.108985
      5.89405      5.51620      3.83603        -0.230734     -0.132820      0.108985
      5.00000      4.99999      5.74770         0.000000      0.001546      1.101958
      5.00000      5.00001      4.25230         0.000000     -0.001546     -1.101958
[...]
 -0.614   0.274   0.105   0.041   0.000
 -0.260   0.105   0.043   0.014   0.000
 -0.103   0.041   0.014   0.013   0.000
  0.000   0.000   0.000   0.000   0.009
 total augmentation occupancy for first ion, spin component:           2
  0.000   0.000   0.000   0.000   0.000
  0.000   0.000   0.000   0.000   0.000
  0.000   0.000   0.000   0.000   0.000
  0.000   0.000   0.000   0.000   0.000
  0.000   0.000   0.000   0.000   0.000


------------------------ aborting loop because EDIFF is reached ----------------------------------------


    CHARGE:  cpu time    0.47: real time    0.47
    FORLOC:  cpu time    0.20: real time    0.20
    FORNL :  cpu time    0.67: real time    0.67
    STRESS:  cpu time    1.71: real time    1.71
    FORHAR:  cpu time    0.61: real time    0.61
    MIXING:  cpu time    0.09: real time    0.09

  FORCE on cell =-STRESS in cart. coord.  units (eV):
  Direction    XX          YY          ZZ          XY          YZ          ZX
  --------------------------------------------------------------------------------------
  Alpha Z     0.77500     0.77500     0.77500
  Ewald      49.87105    49.88324   226.45503     0.00000    -0.06017     0.00000
  Hartree   161.85282   161.85745   299.51602     0.00000    -0.04953     0.00000
  E(xc)     -47.87716   -47.87708   -47.81871     0.00000     0.00003     0.00000
  Local    -322.00901  -322.02592  -642.32596     0.00000     0.10928     0.00000
  n-local   -25.97962   -25.98092   -24.74060     0.00000    -0.00073     0.00000
  augment    -0.00091    -0.00411     0.05124     0.00000     0.00009     0.00000
  Kinetic   181.59859   181.59051   186.66844     0.00000     0.00010     0.00000
  Fock        0.00000     0.00000     0.00000     0.00000     0.00000     0.00000
  -------------------------------------------------------------------------------------
  Total      -1.76925    -1.78184    -1.41955     0.00000    -0.00093     0.00000
  in kB      -2.83465    -2.85483    -2.27438     0.00000    -0.00149     0.00000
  external pressure =       -2.65 kB  Pullay stress =        0.00 kB


 VOLUME and BASIS-vectors are now :
 -----------------------------------------------------------------------------
  energy-cutoff  :      350.00
  volume of cell :     1000.00
      direct lattice vectors                 reciprocal lattice vectors
    10.000000000  0.000000000  0.000000000     0.100000000  0.000000000  0.000000000
     0.000000000 10.000000000  0.000000000     0.000000000  0.100000000  0.000000000
     0.000000000  0.000000000 10.000000000     0.000000000  0.000000000  0.100000000

  length of vectors
    10.000000000 10.000000000 10.000000000     0.100000000  0.100000000  0.100000000


 FORCES acting on ions
    electron-ion (+dipol)            ewald-force                    non-local-force                 convergence-correction
 -----------------------------------------------------------------------------------------------
   0.239E-13 -.538E+02 -.299E+02   -.655E-15 0.587E+02 0.319E+02   0.000E+00 -.500E+01 -.197E+01   -.125E-13 0.593E-02 0.248E-02
   0.466E+02 0.269E+02 -.299E+02   -.509E+02 -.294E+02 0.319E+02   0.433E+01 0.250E+01 -.197E+01   -.514E-02 -.297E-02 0.248E-02
   -.466E+02 0.269E+02 -.299E+02   0.509E+02 -.294E+02 0.319E+02   -.433E+01 0.250E+01 -.197E+01   0.514E-02 -.297E-02 0.248E-02
   0.246E-13 0.538E+02 0.299E+02   -.366E-15 -.587E+02 -.319E+02   0.000E+00 0.500E+01 0.197E+01   -.177E-13 -.593E-02 -.248E-02
   0.466E+02 -.269E+02 0.299E+02   -.509E+02 0.294E+02 -.319E+02   0.433E+01 -.250E+01 0.197E+01   -.514E-02 0.297E-02 -.248E-02
   -.466E+02 -.269E+02 0.299E+02   0.509E+02 0.294E+02 -.319E+02   -.433E+01 -.250E+01 0.197E+01   0.514E-02 0.297E-02 -.248E-02
   0.969E-13 -.982E-02 -.764E+02   -.206E-14 0.930E-02 0.765E+02   0.000E+00 -.367E-04 -.199E+00   -.868E-13 -.312E-04 0.105E-01
   0.101E-12 0.982E-02 0.764E+02   0.651E-14 -.930E-02 -.765E+02   0.000E+00 0.367E-04 0.199E+00   -.101E-12 0.312E-04 -.105E-01
 -----------------------------------------------------------------------------------------------
   0.624E-12 0.377E-12 -.185E-12   0.445E-14 -.344E-14 0.000E+00   0.000E+00 0.000E+00 -.444E-15   -.258E-12 0.148E-12 0.553E-12
 
 
 POSITION                                       TOTAL-FORCE (eV/Angst)
 -----------------------------------------------------------------------------------
      5.00000      6.02902      6.16287         0.000000     -0.045677      0.019496
      4.10888      4.48549      6.16283         0.039920      0.022793      0.019194
      5.89112      4.48549      6.16283        -0.039920      0.022793      0.019194
      5.00000      3.97098      3.83713         0.000000      0.045677     -0.019496
      4.10888      5.51451      3.83717         0.039920     -0.022793     -0.019194
      5.89112      5.51451      3.83717        -0.039920     -0.022793     -0.019194
      5.00000      5.00002      5.76431         0.000000     -0.000590     -0.093882
      5.00000      4.99998      4.23569         0.000000      0.000590      0.093882
 -----------------------------------------------------------------------------------
    total drift:                                0.000000      0.000000      0.000000


--------------------------------------------------------------------------------------------------------



  FREE ENERGIE OF THE ION-ELECTRON SYSTEM (eV)
  ---------------------------------------------------
  free  energy   TOTEN  =       -40.446390 eV

  energy  without entropy=      -40.446390  energy(sigma->0) =      -40.446390
 
 d Force = 0.1946714E-02[-0.244E-02, 0.633E-02]  d Energy = 0.1871050E-02 0.757E-04
 d Force = 0.3518734E+01[ 0.350E+01, 0.354E+01]  d Ewald  = 0.3518659E+01 0.747E-04


--------------------------------------------------------------------------------------------------------


    POTLOK:  cpu time    4.07: real time    4.07


--------------------------------------------------------------------------------------------------------


 Conjugate gradient step on ions:
 trial-energy change:   -0.001871  1 .order   -0.001947   -0.006330    0.002437
  (g-gl).g = 0.723E-02      g.g   = 0.723E-02  gl.gl    = 0.368E-01
 g(Force)  = 0.723E-02   g(Stress)= 0.000E+00 ortho     = 0.437E-05
 gamma     =   0.19622
 trial     =   0.87547
 opt step  =   0.63214  (harmonic =   0.63214) maximal distance =0.00547014
 next E    =   -40.446804   (d E  =  -0.00229)


--------------------------------------------------------------------------------------------------------


    WAVPRE:  cpu time    0.33: real time    0.34
    FEWALD:  cpu time    0.00: real time    0.00
    ORTHCH:  cpu time    0.16: real time    0.16
     LOOP+:  cpu time   38.85: real time   38.97


----------------------------------------- Iteration    5(   1)  ---------------------------------------


    POTLOK:  cpu time    3.86: real time    3.86
    SETDIJ:  cpu time    0.10: real time    0.10
     EDDAV:  cpu time    2.79: real time    2.79
       DOS:  cpu time    0.00: real time    0.00
    CHARGE:  cpu time    0.45: real time    0.45
    MIXING:  cpu time    0.07: real time    0.07
    --------------------------------------------
      LOOP:  cpu time    7.27: real time    7.27

 eigenvalue-minimisations  :    64
 total energy-change (2. order) :-0.3528178E-03  (-0.2896068E-02)
 number of electron      13.9999983 magnetization       0.0000000
 augmentation part        0.3183063 magnetization      -0.0000001

 Broyden mixing:
  rms(total) = 0.52815E-02    rms(broyden)= 0.52750E-02
  rms(prec ) = 0.73888E-02
  weight for this iteration     100.00

 Free energy of the ion-electron system (eV)
  ---------------------------------------------------
  alpha Z        PSCENC =         0.77500207
  Ewald energy   TEWEN  =       327.18359627
  -1/2 Hartree   DENC   =      -623.84427301
  -exchange  EXHF       =         0.00000000
  -V(xc)+E(xc)   XCENC  =        45.32707403
  PAW double counting   =       165.62370487     -168.30065368
  entropy T*S    EENTRO =         0.00000000
  eigenvalues    EBANDS =      -156.16131736
  atomic energy  EATOM  =       368.95004178
  ---------------------------------------------------
  free energy    TOTEN  =       -40.44682504 eV

  energy without entropy =      -40.44682504  energy(sigma->0) =      -40.44682504


--------------------------------------------------------------------------------------------------------




----------------------------------------- Iteration    5(   2)  ---------------------------------------


    POTLOK:  cpu time    3.66: real time    3.66
    SETDIJ:  cpu time    0.10: real time    0.10
     EDDAV:  cpu time    3.77: real time    3.77
       DOS:  cpu time    0.00: real time    0.00
    --------------------------------------------
      LOOP:  cpu time    7.53: real time    7.54

 eigenvalue-minimisations  :    96
 total energy-change (2. order) : 0.8761680E-04  (-0.2882033E-04)
 number of electron      13.9999983 magnetization       0.0000000
 augmentation part        0.3183063 magnetization      -0.0000001

 Free energy of the ion-electron system (eV)
  ---------------------------------------------------
  alpha Z        PSCENC =         0.77500207
  Ewald energy   TEWEN  =       327.18359627
  -1/2 Hartree   DENC   =      -623.97526690
  -exchange  EXHF       =         0.00000000
  -V(xc)+E(xc)   XCENC  =        45.33239556
  PAW double counting   =       165.91465856     -168.59328260
  entropy T*S    EENTRO =         0.00000000
  eigenvalues    EBANDS =      -156.03388215
  atomic energy  EATOM  =       368.95004178
  ---------------------------------------------------
  free energy    TOTEN  =       -40.44673742 eV

  energy without entropy =      -40.44673742  energy(sigma->0) =      -40.44673742


--------------------------------------------------------------------------------------------------------




 average (electrostatic) potential at core
  the test charge radii are     0.5201  0.6991
  (the norm of the test charge is              1.0000)
       1 -41.2044       2 -41.2042       3 -41.2042       4 -41.2044       5 -41.2042
       6 -41.2042       7 -58.0587       8 -58.0587
 
 
 
 E-fermi :  -6.8851     XC(G=0):  -0.9818     alpha+bet : -0.3665


 spin component 1

 k-point   1 :       0.0000    0.0000    0.0000
  band No.  band energies     occupation 
      1     -18.3257      1.00000
      2     -14.7487      1.00000
      3     -10.2716      1.00000
      4     -10.2714      1.00000
      5      -8.6659      1.00000
      6      -7.8671      1.00000
      7      -7.8667      1.00000
      8      -0.5014      0.00000
      9       0.6775      0.00000
     10       0.8875      0.00000
     11       0.8880      0.00000
     12       1.0059      0.00000
     13       1.0656      0.00000
     14       1.3016      0.00000
     15       1.8572      0.00000
     16       2.4106      0.00000

 spin component 2

 k-point   1 :       0.0000    0.0000    0.0000
  band No.  band energies     occupation 
      1     -18.3256      1.00000
      2     -14.7486      1.00000
      3     -10.2715      1.00000
      4     -10.2713      1.00000
      5      -8.6659      1.00000
      6      -7.8671      1.00000
      7      -7.8667      1.00000
      8      -0.5015      0.00000
      9       0.6775      0.00000
     10       0.8872      0.00000
     11       0.8877      0.00000
     12       1.0053      0.00000
     13       1.0652      0.00000
     14       1.3023      0.00000
     15       1.8570      0.00000
     16       2.4113      0.00000


--------------------------------------------------------------------------------------------------------


 soft charge-density along one line, spin component           1
         0         1         2         3         4         5         6         7         8         9
 total charge-density along one line
 
 soft charge-density along one line, spin component           2
         0         1         2         3         4         5         6         7         8         9
 total charge-density along one line
 
 pseudopotential strength for first ion, spin component:           1
 -2.337  -0.010   0.002   0.001   0.000
 -0.010   0.049   0.002   0.001   0.000
  0.002   0.002  -0.335   0.002   0.000
  0.001   0.001   0.002  -0.339   0.000
  0.000   0.000   0.000   0.000  -0.340
 pseudopotential strength for first ion, spin component:           2
 -2.337  -0.010   0.002   0.001   0.000
 -0.010   0.049   0.002   0.001   0.000
  0.002   0.002  -0.335   0.002   0.000
  0.001   0.001   0.002  -0.339   0.000
  0.000   0.000   0.000   0.000  -0.340
 total augmentation occupancy for first ion, spin component:           1
  1.735  -0.614  -0.261  -0.104   0.000
 -0.614   0.274   0.105   0.042   0.000
 -0.261   0.105   0.043   0.014   0.000
 -0.104   0.042   0.014   0.014   0.000
  0.000   0.000   0.000   0.000   0.009
 total augmentation occupancy for first ion, spin component:           2
  0.000   0.000   0.000   0.000   0.000
  0.000   0.000   0.000   0.000   0.000
  0.000   0.000   0.000   0.000   0.000
  0.000   0.000   0.000   0.000   0.000
  0.000   0.000   0.000   0.000   0.000


------------------------ aborting loop because EDIFF is reached ----------------------------------------


    CHARGE:  cpu time    0.46: real time    0.46
    FORLOC:  cpu time    0.19: real time    0.19
    FORNL :  cpu time    0.62: real time    0.63
    STRESS:  cpu time    1.41: real time    1.42
    FORHAR:  cpu time    0.56: real time    0.56
    MIXING:  cpu time    0.08: real time    0.08

  FORCE on cell =-STRESS in cart. coord.  units (eV):
  Direction    XX          YY          ZZ          XY          YZ          ZX
  --------------------------------------------------------------------------------------
  Alpha Z     0.77500     0.77500     0.77500
  Ewald      49.88154    49.89046   227.41145     0.00000    -0.06158     0.00000
  Hartree   162.14242   162.14613   299.91365     0.00000    -0.05002     0.00000
  E(xc)     -47.90318   -47.90311   -47.83919     0.00000     0.00003     0.00000
  Local    -322.33821  -322.35146  -643.54568     0.00000     0.11102     0.00000
  n-local   -26.03507   -26.03639   -24.79763     0.00000    -0.00076     0.00000
  augment    -0.00318    -0.00631     0.04810     0.00000     0.00011     0.00000
  Kinetic   181.83232   181.82531   186.81156     0.00000     0.00044     0.00000
  Fock        0.00000     0.00000     0.00000     0.00000     0.00000     0.00000
  -------------------------------------------------------------------------------------
  Total      -1.64837    -1.66038    -1.22273     0.00000    -0.00077     0.00000
  in kB      -2.64098    -2.66022    -1.95903     0.00000    -0.00123     0.00000
  external pressure =       -2.42 kB  Pullay stress =        0.00 kB


 VOLUME and BASIS-vectors are now :
 -----------------------------------------------------------------------------
  energy-cutoff  :      350.00
  volume of cell :     1000.00
      direct lattice vectors                 reciprocal lattice vectors
    10.000000000  0.000000000  0.000000000     0.100000000  0.000000000  0.000000000
     0.000000000 10.000000000  0.000000000     0.000000000  0.100000000  0.000000000
     0.000000000  0.000000000 10.000000000     0.000000000  0.000000000  0.100000000

  length of vectors
    10.000000000 10.000000000 10.000000000     0.100000000  0.100000000  0.100000000


 FORCES acting on ions
    electron-ion (+dipol)            ewald-force                    non-local-force                 convergence-correction
 -----------------------------------------------------------------------------------------------
   0.236E-13 -.538E+02 -.300E+02   0.205E-15 0.588E+02 0.320E+02   0.000E+00 -.501E+01 -.199E+01   -.115E-13 0.951E-02 0.970E-02
   0.466E+02 0.269E+02 -.300E+02   -.509E+02 -.294E+02 0.320E+02   0.434E+01 0.250E+01 -.199E+01   -.825E-02 -.474E-02 0.970E-02
   -.466E+02 0.269E+02 -.300E+02   0.509E+02 -.294E+02 0.320E+02   -.434E+01 0.250E+01 -.199E+01   0.825E-02 -.474E-02 0.970E-02
   0.231E-13 0.538E+02 0.300E+02   -.555E-15 -.588E+02 -.320E+02   0.000E+00 0.501E+01 0.199E+01   -.137E-13 -.951E-02 -.970E-02
   0.466E+02 -.269E+02 0.300E+02   -.509E+02 0.294E+02 -.320E+02   0.434E+01 -.250E+01 0.199E+01   -.825E-02 0.474E-02 -.970E-02
   -.466E+02 -.269E+02 0.300E+02   0.509E+02 0.294E+02 -.320E+02   -.434E+01 -.250E+01 0.199E+01   0.825E-02 0.474E-02 -.970E-02
   0.951E-13 -.848E-02 -.768E+02   -.157E-15 0.780E-02 0.769E+02   0.000E+00 0.323E-03 -.160E+00   -.612E-13 0.139E-03 0.569E-01
   0.976E-13 0.848E-02 0.768E+02   0.256E-15 -.780E-02 -.769E+02   0.000E+00 -.323E-03 0.160E+00   -.872E-13 -.139E-03 -.569E-01
 -----------------------------------------------------------------------------------------------
   0.647E-12 0.144E-11 0.142E-13   0.991E-16 -.908E-14 0.000E+00   -.888E-15 -.444E-15 -.666E-15   -.205E-12 -.738E-12 0.594E-13
 
 
 POSITION                                       TOTAL-FORCE (eV/Angst)
 -----------------------------------------------------------------------------------
      5.00000      6.02764      6.16201         0.000000     -0.017973      0.024694
      4.11007      4.48618      6.16198         0.015934      0.008940      0.024340
      5.88993      4.48618      6.16198        -0.015934      0.008940      0.024340
      5.00000      3.97236      3.83799         0.000000      0.017973     -0.024694
      4.11007      5.51382      3.83802         0.015934     -0.008940     -0.024340
      5.88993      5.51382      3.83802        -0.015934     -0.008940     -0.024340
      5.00000      5.00002      5.76220         0.000000     -0.000217     -0.014622
      5.00000      4.99998      4.23780         0.000000      0.000217      0.014622
 -----------------------------------------------------------------------------------
    total drift:                                0.000000      0.000000      0.000000


--------------------------------------------------------------------------------------------------------



  FREE ENERGIE OF THE ION-ELECTRON SYSTEM (eV)
  ---------------------------------------------------
  free  energy   TOTEN  =       -40.446737 eV

  energy  without entropy=      -40.446737  energy(sigma->0) =      -40.446737
 
 d Force = 0.3822071E-03[ 0.872E-04, 0.677E-03]  d Energy = 0.3472834E-03 0.349E-04
 d Force =-0.9741331E+00[-0.976E+00,-0.973E+00]  d Ewald  =-0.9741315E+00-0.158E-05


--------------------------------------------------------------------------------------------------------


    POTLOK:  cpu time    3.83: real time    3.84


--------------------------------------------------------------------------------------------------------




--------------------------------------------------------------------------------------------------------


  
 reached required accuracy - stopping structural energy minimisation
 writing wavefunctions
     LOOP+:  cpu time   22.11: real time   22.33
    4ORBIT:  cpu time    0.00: real time    0.00

 total amount of memory used by VASP on root node   153049. kBytes
========================================================================

   base      :      30000. kBytes
   nonl-proj :       3787. kBytes
   fftplans  :      30736. kBytes
   grid      :      80879. kBytes
   one-center:         49. kBytes
   wavefun   :       7598. kBytes
 
  
  
 General timing and accounting informations for this job:
 ========================================================
  
                  Total CPU time used (sec):      309.047
                            User time (sec):      306.617
                          System time (sec):        2.430
                         Elapsed time (sec):      313.078
  
                   Maximum memory used (kb):           0.
                   Average memory used (kb):           0.
  
                          Minor page faults:       716455
                          Major page faults:            0
                 Voluntary context switches:         4106
