<?xml version="1.0" encoding="ISO-8859-1"?>
<modeling>
 <generator>
  <i name="program" type="string">vasp </i>
  <i name="version" type="string">5.2.12  </i>
  <i name="subversion" type="string">11Nov11 complex                                                      parallel </i>
  <i name="platform" type="string">LinuxIFC </i>
  <i name="date" type="string">2012 10 31 </i>
  <i name="time" type="string">13:28:57 </i>
 </generator>
 <incar>
  <i type="string" name="PREC">normal</i>
  <i type="int" name="ISPIN">     2</i>
  <i type="int" name="IBRION">     2</i>
  <i type="int" name="NSW">    10</i>
  <i name="ENCUT">    350.00000000</i>
  <i type="int" name="NBANDS">    16</i>
  <i type="int" name="ISMEAR">     0</i>
 </incar>
 <kpoints>
  <generation param="Monkhorst-Pack">
   <v type="int" name="divisions">       1        1        1 </v>
   <v name="usershift">      0.00000000       0.00000000       0.00000000 </v>
   <v name="genvec1">      1.00000000       0.00000000       0.00000000 </v>
   <v name="genvec2">      0.00000000       1.00000000       0.00000000 </v>
   <v name="genvec3">      0.00000000       0.00000000       1.00000000 </v>
   <v name="shift">      0.00000000       0.00000000       0.00000000 </v>
  </generation>
  <varray name="kpointlist" >
   <v>       0.00000000       0.00000000       0.00000000 </v>
  </varray>
  <varray name="weights" >
   <v>       1.00000000 </v>
  </varray>
 </kpoints>
 <parameters>
  <separator name="general" >
   <i type="string" name="SYSTEM">unknown system</i>
   <i type="logical" name="LCOMPAT"> F  </i>
  </separator>
  <separator name="electronic" >
   <i type="string" name="PREC">normal</i>
   <i name="ENMAX">    350.00000000</i>
   <i name="ENAUG">    644.87300000</i>
   <i name="EDIFF">      0.00010000</i>
   <i type="int" name="IALGO">    38</i>
   <i type="int" name="IWAVPR">    11</i>
   <i type="int" name="NBANDS">    16</i>
   <i name="NELECT">     14.00000000</i>
   <i type="int" name="TURBO">     0</i>
   <i type="int" name="IRESTART">     0</i>
   <i type="int" name="NREBOOT">     0</i>
   <i type="int" name="NMIN">     0</i>
   <i name="EREF">      0.00000000</i>
   <separator name="electronic smearing" >
    <i type="int" name="ISMEAR">     0</i>
    <i name="SIGMA">      0.20000000</i>
    <i name="KSPACING">      0.50000000</i>
    <i type="logical" name="KGAMMA"> T  </i>
   </separator>
   <separator name="electronic projectors" >
    <i type="logical" name="LREAL"> F  </i>
    <v name="ROPT">      0.00000000      0.00000000</v>
    <i type="int" name="LMAXPAW">  -100</i>
    <i type="int" name="LMAXMIX">     2</i>
    <i type="logical" name="NLSPLINE"> F  </i>
   </separator>
   <separator name="electronic startup" >
    <i type="int" name="ISTART">     0</i>
    <i type="int" name="ICHARG">     2</i>
    <i type="int" name="INIWAV">     1</i>
   </separator>
   <separator name="electronic spin" >
    <i type="int" name="ISPIN">     2</i>
    <i type="logical" name="LNONCOLLINEAR"> F  </i>
    <v name="MAGMOM">      1.00000000      1.00000000      1.00000000      1.00000000      1.00000000      1.00000000      1.00000000      1.00000000</v>
    <i name="NUPDOWN">     -1.00000000</i>
    <i type="logical" name="LSORBIT"> F  </i>
    <v name="SAXIS">      0.00000000      0.00000000      1.00000000</v>
    <i type="logical" name="LSPIRAL"> F  </i>
    <v name="QSPIRAL">      0.00000000      0.00000000      0.00000000</v>
    <i type="logical" name="LZEROZ"> F  </i>
   </separator>
   <separator name="electronic exchange-correlation" >
    <i type="logical" name="LASPH"> F  </i>
    <i type="logical" name="LMETAGGA"> F  </i>
   </separator>
   <separator name="electronic convergence" >
    <i type="int" name="NELM">    60</i>
    <i type="int" name="NELMDL">    -5</i>
    <i type="int" name="NELMIN">     2</i>
    <i name="ENINI">    350.00000000</i>
    <separator name="electronic convergence detail" >
     <i type="logical" name="LDIAG"> T  </i>
     <i type="logical" name="LSUBROT"> T  </i>
     <i name="WEIMIN">      0.00100000</i>
     <i name="EBREAK">      0.00000156</i>
     <i name="DEPER">      0.30000000</i>
     <i type="int" name="NRMM">     4</i>
     <i name="TIME">      0.40000000</i>
    </separator>
   </separator>
   <separator name="electronic mixer" >
    <i name="AMIX">      0.40000000</i>
    <i name="BMIX">      1.00000000</i>
    <i name="AMIN">      0.10000000</i>
    <i name="AMIX_MAG">      1.60000000</i>
    <i name="BMIX_MAG">      1.00000000</i>
    <separator name="electronic mixer details" >
     <i type="int" name="IMIX">     4</i>
     <i type="int" name="MAXMIX">   -45</i>
     <i name="WC">    100.00000000</i>
     <i type="int" name="INIMIX">     1</i>
     <i type="int" name="MIXPRE">     1</i>
     <i type="int" name="MREMOVE">     5</i>
    </separator>
   </separator>
   <separator name="electronic dipolcorrection" >
    <i type="logical" name="LDIPOL"> F  </i>
    <i type="logical" name="LMONO"> F  </i>
    <i type="int" name="IDIPOL">     0</i>
    <i name="EPSILON">      1.00000000</i>
    <v name="DIPOL">   -100.00000000   -100.00000000   -100.00000000</v>
    <i name="EFIELD">      0.00000000</i>
   </separator>
  </separator>
  <separator name="grids" >
   <i type="int" name="NGX">    48</i>
   <i type="int" name="NGY">    48</i>
   <i type="int" name="NGZ">    48</i>
   <i type="int" name="NGXF">    96</i>
   <i type="int" name="NGYF">    96</i>
   <i type="int" name="NGZF">    96</i>
   <i type="logical" name="ADDGRID"> F  </i>
  </separator>
  <separator name="ionic" >
   <i type="int" name="NSW">    10</i>
   <i type="int" name="IBRION">     2</i>
   <i type="int" name="ISIF">     2</i>
   <i name="PSTRESS">      0.00000000</i>
   <i name="EDIFFG">      0.00100000</i>
   <i type="int" name="NFREE">     1</i>
   <i name="POTIM">      0.50000000</i>
   <i name="SMASS">     -3.00000000</i>
   <i name="SCALEE">      1.00000000</i>
  </separator>
  <separator name="ionic md" >
   <i name="TEBEG">      0.00010000</i>
   <i name="TEEND">      0.00010000</i>
   <i type="int" name="NBLOCK">     1</i>
   <i type="int" name="KBLOCK">    10</i>
   <i type="int" name="NPACO">   256</i>
   <i name="APACO">     16.00000000</i>
  </separator>
  <separator name="symmetry" >
   <i type="int" name="ISYM">     2</i>
   <i name="SYMPREC">      0.00001000</i>
  </separator>
  <separator name="dos" >
   <i type="logical" name="LORBIT"> F  </i>
   <v name="RWIGS">     -1.00000000     -1.00000000</v>
   <i type="int" name="NEDOS">   301</i>
   <i name="EMIN">     10.00000000</i>
   <i name="EMAX">    -10.00000000</i>
   <i name="EFERMI">      0.00000000</i>
  </separator>
  <separator name="writing" >
   <i type="int" name="NWRITE">     2</i>
   <i type="logical" name="LWAVE"> T  </i>
   <i type="logical" name="LCHARG"> T  </i>
   <i type="logical" name="LPARD"> F  </i>
   <i type="logical" name="LVTOT"> F  </i>
   <i type="logical" name="LVHAR"> F  </i>
   <i type="logical" name="LELF"> F  </i>
   <i type="logical" name="LOPTICS"> F  </i>
   <v name="STM">      0.00000000      0.00000000      0.00000000      0.00000000      0.00000000      0.00000000      0.00000000</v>
  </separator>
  <separator name="performance" >
   <i type="int" name="NPAR">     1</i>
   <i type="int" name="NSIM">     4</i>
   <i type="int" name="NBLK">    -1</i>
   <i type="logical" name="LPLANE"> T  </i>
   <i type="logical" name="LSCALAPACK"> F  </i>
   <i type="logical" name="LSCAAWARE"> F  </i>
   <i type="logical" name="LSCALU"> F  </i>
   <i type="logical" name="LASYNC"> F  </i>
   <i type="logical" name="LORBITALREAL"> F  </i>
  </separator>
  <separator name="miscellaneous" >
   <i type="int" name="IDIOT">     3</i>
   <i type="logical" name="LMUSIC"> F  </i>
   <v name="POMASS">      1.00000000     12.01100000</v>
   <v name="DARWINR">      0.00000000      0.00000000</v>
   <v name="DARWINV">      1.00000000      1.00000000</v>
   <i type="logical" name="LCORR"> T  </i>
  </separator>
  <i type="logical" name="GGA_COMPAT"> T  </i>
  <i type="logical" name="LBERRY"> F  </i>
  <i type="int" name="ICORELEVEL">     0</i>
  <i type="logical" name="LDAU"> F  </i>
  <i type="int" name="I_CONSTRAINED_M">     0</i>
  <separator name="electronic exchange-correlation" >
   <i type="string" name="GGA">--</i>
   <i type="int" name="VOSKOWN">     0</i>
   <i type="logical" name="LHFCALC"> F  </i>
   <i type="string" name="PRECFOCK"></i>
   <i type="logical" name="LHFONE"> F  </i>
   <i type="logical" name="LRHFCALC"> F  </i>
   <i type="logical" name="LTHOMAS"> F  </i>
   <i type="logical" name="LMODELHF"> F  </i>
   <i name="ENCUT4O">     -1.00000000</i>
   <i type="int" name="EXXOEP">     0</i>
   <i type="int" name="FOURORBIT">     0</i>
   <i name="AEXX">      0.00000000</i>
   <i name="HFALPHA">      0.00000000</i>
   <i name="ALDAX">      1.00000000</i>
   <i name="AGGAX">      1.00000000</i>
   <i name="ALDAC">      1.00000000</i>
   <i name="AGGAC">      1.00000000</i>
   <i type="int" name="NKREDX">     1</i>
   <i type="int" name="NKREDY">     1</i>
   <i type="int" name="NKREDZ">     1</i>
   <i type="logical" name="SHIFTRED"> F  </i>
   <i type="logical" name="ODDONLY"> F  </i>
   <i type="logical" name="EVENONLY"> F  </i>
   <i type="int" name="LMAXFOCK">     0</i>
   <i type="int" name="NMAXFOCKAE">     0</i>
   <i type="logical" name="LFOCKAEDFT"> F  </i>
   <i name="HFSCREEN">      0.00000000</i>
   <i name="HFSCREENC">      0.00000000</i>
  </separator>
  <separator name="vdW DFT" >
   <i type="logical" name="LUSE_VDW"> F  </i>
   <i name="Zab_VDW">     -0.84910000</i>
   <i name="PARAM1">      0.12340000</i>
   <i name="PARAM2">      1.00000000</i>
   <i name="PARAM3">      0.00000000</i>
  </separator>
  <separator name="model GW" >
   <i type="int" name="MODEL_GW">     0</i>
   <i name="MODEL_EPS0">     75.00000000</i>
   <i name="MODEL_ALPHA">      1.00000000</i>
  </separator>
  <separator name="linear response parameters" >
   <i type="logical" name="LEPSILON"> F  </i>
   <i type="logical" name="LRPA"> F  </i>
   <i type="logical" name="LNABLA"> F  </i>
   <i type="logical" name="LVEL"> F  </i>
   <i type="int" name="KINTER">     0</i>
   <i name="CSHIFT">      0.10000000</i>
   <i name="OMEGAMAX">     -1.00000000</i>
  </separator>
  <separator name="orbital magnetization" >
   <i type="logical" name="NUCIND"> F  </i>
   <v name="MAGPOS">      0.00000000      0.00000000      0.00000000</v>
   <i type="logical" name="LNICSALL"> T  </i>
   <i type="logical" name="ORBITALMAG"> F  </i>
   <i type="logical" name="LMAGBLOCH"> F  </i>
   <i type="logical" name="LCHIMAG"> F  </i>
   <i type="logical" name="LGAUGE"> T  </i>
   <i type="int" name="MAGATOM">     0</i>
   <v name="MAGDIPOL">      0.00000000      0.00000000      0.00000000</v>
   <v name="AVECCONST">      0.00000000      0.00000000      0.00000000</v>
  </separator>
  <separator name="response functions" >
   <i type="logical" name="LADDER"> F  </i>
   <i type="logical" name="LHARTREE"> T  </i>
   <i type="int" name="IBSE">     0</i>
   <i type="logical" name="LTCTE"> F  </i>
   <i type="logical" name="LTETE"> F  </i>
   <i type="logical" name="LFXCEPS"> F  </i>
   <i type="logical" name="L2ORDER"> F  </i>
   <i type="logical" name="LUSEW"> F  </i>
   <i name="ENCUTGW">     -2.00000000</i>
   <i name="ENCUTGWSOFT">     -2.00000000</i>
   <i name="ENCUTLF">     -1.00000000</i>
   <i type="int" name="LMAXMP2">    -1</i>
   <i name="SCISSOR">      0.00000000</i>
   <i type="int" name="NOMEGA">     0</i>
   <i type="int" name="NOMEGAR">     0</i>
   <i type="int" name="NBANDSGW">    -1</i>
   <i type="int" name="NBANDSO">    -1</i>
   <i type="int" name="NBANDSV">    -1</i>
   <i name="OPTEMAX">      0.00000000</i>
   <i type="int" name="NELM">     1</i>
   <i type="int" name="DIM">     3</i>
   <i type="int" name="ANTIRES">     0</i>
   <i name="OMEGAMAX">    -30.00000000</i>
   <i name="OMEGATL">   -200.00000000</i>
   <i type="int" name="OMEGAGRID">     0</i>
   <i name="CSHIFT">     -0.10000000</i>
   <i type="logical" name="SELFENERGY"> F  </i>
   <i type="logical" name="LSPECTRAL"> F  </i>
   <i type="logical" name="ODDONLYGW"> F  </i>
   <i type="logical" name="EVENONLYGW"> F  </i>
   <i type="int" name="NKREDLFX">     1</i>
   <i type="int" name="NKREDLFY">     1</i>
   <i type="int" name="NKREDLFZ">     1</i>
   <i type="int" name="MAXMEM">  1800</i>
   <i type="int" name="TELESCOPE">     0</i>
  </separator>
 </parameters>
 <atominfo>
  <atoms>       8 </atoms>
  <types>       2 </types>
  <array name="atoms" >
   <dimension dim="1">ion</dimension>
   <field type="string">element</field>
   <field type="int">atomtype</field>
   <set>
    <rc><c>H </c><c>   1</c></rc>
    <rc><c>H </c><c>   1</c></rc>
    <rc><c>H </c><c>   1</c></rc>
    <rc><c>H </c><c>   1</c></rc>
    <rc><c>H </c><c>   1</c></rc>
    <rc><c>H </c><c>   1</c></rc>
    <rc><c>C </c><c>   2</c></rc>
    <rc><c>C </c><c>   2</c></rc>
   </set>
  </array>
  <array name="atomtypes" >
   <dimension dim="1">type</dimension>
   <field type="int">atomspertype</field>
   <field type="string">element</field>
   <field>mass</field>
   <field>valence</field>
   <field type="string">pseudopotential</field>
   <set>
    <rc><c>   6</c><c>H </c><c>      1.00000000</c><c>      1.00000000</c><c> PAW_PBE H 15Jun2001                    </c></rc>
    <rc><c>   2</c><c>C </c><c>     12.01100000</c><c>      4.00000000</c><c> PAW_PBE C 08Apr2002                    </c></rc>
   </set>
  </array>
 </atominfo>
 <structure name="initialpos" >
  <crystal>
   <varray name="basis" >
    <v>      10.00000000       0.00000000       0.00000000 </v>
    <v>       0.00000000      10.00000000       0.00000000 </v>
    <v>       0.00000000       0.00000000      10.00000000 </v>
   </varray>
   <i name="volume">   1000.00000000 </i>
   <varray name="rec_basis" >
    <v>       0.10000000       0.00000000       0.00000000 </v>
    <v>       0.00000000       0.10000000       0.00000000 </v>
    <v>       0.00000000       0.00000000       0.10000000 </v>
   </varray>
  </crystal>
  <varray name="positions" >
   <v>       0.50000000       0.60189570       0.61572290 </v>
   <v>       0.41175570       0.44905210       0.61572290 </v>
   <v>       0.58824430       0.44905210       0.61572290 </v>
   <v>       0.50000000       0.39810430       0.38427710 </v>
   <v>       0.41175570       0.55094790       0.38427710 </v>
   <v>       0.58824430       0.55094790       0.38427710 </v>
   <v>       0.50000000       0.50000000       0.57622090 </v>
   <v>       0.50000000       0.50000000       0.42377910 </v>
  </varray>
 </structure>
 <calculation>
  <scstep>
   <time name="dav">    3.95    3.95</time>
   <time name="total">    8.23    8.32</time>
   <energy>
    <i name="alphaZ">      0.77500207 </i>
    <i name="ewald">    331.18565195 </i>
    <i name="hartreedc">   -554.44162929 </i>
    <i name="XCdc">     43.54130606 </i>
    <i name="pawpsdc">     78.54218220 </i>
    <i name="pawaedc">    -80.87627233 </i>
    <i name="eentropy">     -0.00006309 </i>
    <i name="bandstr">   -149.08611650 </i>
    <i name="atom">    368.95004178 </i>
    <i name="e_fr_energy">     38.59010285 </i>
    <i name="e_wo_entrp">     38.59016593 </i>
    <i name="e_0_energy">     38.59013439 </i>
   </energy>
  </scstep>
  <scstep>
   <time name="dav">    4.27    4.27</time>
   <time name="total">    4.27    4.28</time>
   <energy>
    <i name="e_fr_energy">    -25.00487260 </i>
    <i name="e_wo_entrp">    -25.00487260 </i>
    <i name="e_0_energy">    -25.00487260 </i>
   </energy>
  </scstep>
  <scstep>
   <time name="dav">    4.40    4.41</time>
   <time name="total">    4.40    4.42</time>
   <energy>
    <i name="e_fr_energy">    -33.70861019 </i>
    <i name="e_wo_entrp">    -33.70861019 </i>
    <i name="e_0_energy">    -33.70861019 </i>
   </energy>
  </scstep>
  <scstep>
   <time name="dav">    4.68    4.68</time>
   <time name="total">    4.68    4.69</time>
   <energy>
    <i name="e_fr_energy">    -34.06675974 </i>
    <i name="e_wo_entrp">    -34.06675974 </i>
    <i name="e_0_energy">    -34.06675974 </i>
   </energy>
  </scstep>
  <scstep>
   <time name="dav">    3.86    3.86</time>
   <time name="total">    4.53    4.77</time>
   <energy>
    <i name="e_fr_energy">    -34.07615279 </i>
    <i name="e_wo_entrp">    -34.07615279 </i>
    <i name="e_0_energy">    -34.07615279 </i>
   </energy>
  </scstep>
  <scstep>
   <time name="dav">    4.55    4.55</time>
   <time name="total">    9.23    9.25</time>
   <energy>
    <i name="e_fr_energy">    -15.73974996 </i>
    <i name="e_wo_entrp">    -15.73974996 </i>
    <i name="e_0_energy">    -15.73974996 </i>
   </energy>
  </scstep>
  <scstep>
   <time name="dav">    3.80    3.80</time>
   <time name="total">    8.54    8.55</time>
   <energy>
    <i name="e_fr_energy">    -33.48532879 </i>
    <i name="e_wo_entrp">    -33.48532879 </i>
    <i name="e_0_energy">    -33.48532879 </i>
   </energy>
  </scstep>
  <scstep>
   <time name="dav">    3.48    3.48</time>
   <time name="total">    8.23    8.27</time>
   <energy>
    <i name="e_fr_energy">    -36.74783878 </i>
    <i name="e_wo_entrp">    -36.74783878 </i>
    <i name="e_0_energy">    -36.74783878 </i>
   </energy>
  </scstep>
  <scstep>
   <time name="dav">    4.13    4.13</time>
   <time name="total">    8.90    8.92</time>
   <energy>
    <i name="e_fr_energy">    -40.18573154 </i>
    <i name="e_wo_entrp">    -40.18573154 </i>
    <i name="e_0_energy">    -40.18573154 </i>
   </energy>
  </scstep>
  <scstep>
   <time name="dav">    3.40    3.40</time>
   <time name="total">    8.25    9.37</time>
   <energy>
    <i name="e_fr_energy">    -40.41423980 </i>
    <i name="e_wo_entrp">    -40.41423980 </i>
    <i name="e_0_energy">    -40.41423980 </i>
   </energy>
  </scstep>
  <scstep>
   <time name="dav">    3.38    3.38</time>
   <time name="total">    7.78    7.79</time>
   <energy>
    <i name="e_fr_energy">    -40.42301730 </i>
    <i name="e_wo_entrp">    -40.42301730 </i>
    <i name="e_0_energy">    -40.42301730 </i>
   </energy>
  </scstep>
  <scstep>
   <time name="dav">    2.88    2.88</time>
   <time name="total">    7.28    7.30</time>
   <energy>
    <i name="e_fr_energy">    -40.40820138 </i>
    <i name="e_wo_entrp">    -40.40820138 </i>
    <i name="e_0_energy">    -40.40820138 </i>
   </energy>
  </scstep>
  <scstep>
   <time name="dav">    2.87    2.87</time>
   <time name="total">    7.25    7.27</time>
   <energy>
    <i name="e_fr_energy">    -40.40663736 </i>
    <i name="e_wo_entrp">    -40.40663736 </i>
    <i name="e_0_energy">    -40.40663736 </i>
   </energy>
  </scstep>
  <scstep>
   <time name="dav">    2.90    2.90</time>
   <time name="total">    7.29    7.31</time>
   <energy>
    <i name="e_fr_energy">    -40.42493113 </i>
    <i name="e_wo_entrp">    -40.42493113 </i>
    <i name="e_0_energy">    -40.42493113 </i>
   </energy>
  </scstep>
  <scstep>
   <time name="dav">    3.39    3.39</time>
   <time name="total">    7.76    7.77</time>
   <energy>
    <i name="e_fr_energy">    -40.42907918 </i>
    <i name="e_wo_entrp">    -40.42907918 </i>
    <i name="e_0_energy">    -40.42907918 </i>
   </energy>
  </scstep>
  <scstep>
   <time name="dav">    2.92    2.92</time>
   <time name="total">    7.35    7.72</time>
   <energy>
    <i name="e_fr_energy">    -40.43335450 </i>
    <i name="e_wo_entrp">    -40.43335450 </i>
    <i name="e_0_energy">    -40.43335450 </i>
   </energy>
  </scstep>
  <scstep>
   <time name="dav">    2.96    3.03</time>
   <time name="total">    7.67    7.75</time>
   <energy>
    <i name="e_fr_energy">    -40.43605046 </i>
    <i name="e_wo_entrp">    -40.43605046 </i>
    <i name="e_0_energy">    -40.43605046 </i>
   </energy>
  </scstep>
  <scstep>
   <time name="dav">    3.18    3.19</time>
   <time name="total">    7.94    7.96</time>
   <energy>
    <i name="e_fr_energy">    -40.43698868 </i>
    <i name="e_wo_entrp">    -40.43698868 </i>
    <i name="e_0_energy">    -40.43698868 </i>
   </energy>
  </scstep>
  <scstep>
   <time name="dav">    3.18    3.18</time>
   <time name="total">    7.92    7.94</time>
   <energy>
    <i name="e_fr_energy">    -40.43721169 </i>
    <i name="e_wo_entrp">    -40.43721169 </i>
    <i name="e_0_energy">    -40.43721169 </i>
   </energy>
  </scstep>
  <scstep>
   <time name="dav">    3.26    3.26</time>
   <time name="total">    8.01    8.03</time>
   <energy>
    <i name="e_fr_energy">    -40.43741714 </i>
    <i name="e_wo_entrp">    -40.43741714 </i>
    <i name="e_0_energy">    -40.43741714 </i>
   </energy>
  </scstep>
  <scstep>
   <time name="dav">    2.94    2.94</time>
   <time name="total">    6.99    7.05</time>
   <energy>
    <i name="alphaZ">      0.77500207 </i>
    <i name="ewald">    331.18565195 </i>
    <i name="hartreedc">   -627.66195599 </i>
    <i name="XCdc">     45.49731663 </i>
    <i name="pawpsdc">    169.24666809 </i>
    <i name="pawaedc">   -171.93967377 </i>
    <i name="eentropy">      0.00000000 </i>
    <i name="bandstr">   -156.49055059 </i>
    <i name="atom">    368.95004178 </i>
    <i name="e_fr_energy">    -40.43749984 </i>
    <i name="e_wo_entrp">    -40.43749984 </i>
    <i name="e_0_energy">    -40.43749984 </i>
   </energy>
  </scstep>
  <parameters_embedded>
   <separator name="dft+d2" >
    <i type="logical" name="LVDW"> F  </i>
   </separator>
  </parameters_embedded>
  <structure>
   <crystal>
    <varray name="basis" >
     <v>      10.00000000       0.00000000       0.00000000 </v>
     <v>       0.00000000      10.00000000       0.00000000 </v>
     <v>       0.00000000       0.00000000      10.00000000 </v>
    </varray>
    <i name="volume">   1000.00000000 </i>
    <varray name="rec_basis" >
     <v>       0.10000000       0.00000000       0.00000000 </v>
     <v>       0.00000000       0.10000000       0.00000000 </v>
     <v>       0.00000000       0.00000000       0.10000000 </v>
    </varray>
   </crystal>
   <varray name="positions" >
    <v>       0.50000000       0.60189570       0.61572290 </v>
    <v>       0.41175570       0.44905210       0.61572290 </v>
    <v>       0.58824430       0.44905210       0.61572290 </v>
    <v>       0.50000000       0.39810430       0.38427710 </v>
    <v>       0.41175570       0.55094790       0.38427710 </v>
    <v>       0.58824430       0.55094790       0.38427710 </v>
    <v>       0.50000000       0.50000000       0.57622090 </v>
    <v>       0.50000000       0.50000000       0.42377910 </v>
   </varray>
  </structure>
  <varray name="forces" >
   <v>       0.00000000       0.27905621       0.14045463 </v>
   <v>      -0.24055533      -0.13929048       0.13974612 </v>
   <v>       0.24055533      -0.13929048       0.13974612 </v>
   <v>       0.00000000      -0.27905621      -0.14045463 </v>
   <v>      -0.24055533       0.13929048      -0.13974612 </v>
   <v>       0.24055533       0.13929048      -0.13974612 </v>
   <v>       0.00000000      -0.00012358      -0.30074365 </v>
   <v>       0.00000000       0.00012358       0.30074365 </v>
  </varray>
  <varray name="stress" >
   <v>      -1.36006554       0.00000000       0.00000000 </v>
   <v>       0.00000000      -1.37564647      -0.00014119 </v>
   <v>       0.00000000      -0.00014077      -1.49022140 </v>
  </varray>
  <energy>
   <i name="e_fr_energy">    -40.43749984 </i>
   <i name="e_wo_entrp">    -40.43749984 </i>
   <i name="e_0_energy">      0.00000000 </i>
  </energy>
  <time name="totalsc">  164.17  166.81</time>
 </calculation>
 <calculation>
  <scstep>
   <time name="dav">    3.15    3.15</time>
   <time name="total">    8.00    8.14</time>
   <energy>
    <i name="alphaZ">      0.77500207 </i>
    <i name="ewald">    327.41178560 </i>
    <i name="hartreedc">   -625.95414799 </i>
    <i name="XCdc">     45.36508201 </i>
    <i name="pawpsdc">    169.25561931 </i>
    <i name="pawaedc">   -171.94875960 </i>
    <i name="eentropy">      0.00000000 </i>
    <i name="bandstr">   -154.28497705 </i>
    <i name="atom">    368.95004178 </i>
    <i name="e_fr_energy">    -40.43035388 </i>
    <i name="e_wo_entrp">    -40.43035388 </i>
    <i name="e_0_energy">    -40.43035388 </i>
   </energy>
  </scstep>
  <scstep>
   <time name="dav">    3.34    3.35</time>
   <time name="total">    8.10    8.11</time>
   <energy>
    <i name="e_fr_energy">    -40.42763198 </i>
    <i name="e_wo_entrp">    -40.42763198 </i>
    <i name="e_0_energy">    -40.42763198 </i>
   </energy>
  </scstep>
  <scstep>
   <time name="dav">    3.14    3.14</time>
   <time name="total">    7.88    7.90</time>
   <energy>
    <i name="e_fr_energy">    -40.42623409 </i>
    <i name="e_wo_entrp">    -40.42623409 </i>
    <i name="e_0_energy">    -40.42623409 </i>
   </energy>
  </scstep>
  <scstep>
   <time name="dav">    3.11    3.11</time>
   <time name="total">    7.19    7.25</time>
   <energy>
    <i name="alphaZ">      0.77500207 </i>
    <i name="ewald">    327.41178560 </i>
    <i name="hartreedc">   -624.42610792 </i>
    <i name="XCdc">     45.26892300 </i>
    <i name="pawpsdc">    165.15095977 </i>
    <i name="pawaedc">   -167.82566250 </i>
    <i name="eentropy">      0.00000000 </i>
    <i name="bandstr">   -155.73114198 </i>
    <i name="atom">    368.95004178 </i>
    <i name="e_fr_energy">    -40.42620019 </i>
    <i name="e_wo_entrp">    -40.42620019 </i>
    <i name="e_0_energy">    -40.42620019 </i>
   </energy>
  </scstep>
  <structure>
   <crystal>
    <varray name="basis" >
     <v>      10.00000000       0.00000000       0.00000000 </v>
     <v>       0.00000000      10.00000000       0.00000000 </v>
     <v>       0.00000000       0.00000000      10.00000000 </v>
    </varray>
    <i name="volume">   1000.00000000 </i>
    <varray name="rec_basis" >
     <v>       0.10000000       0.00000000       0.00000000 </v>
     <v>       0.00000000       0.10000000       0.00000000 </v>
     <v>       0.00000000       0.00000000       0.10000000 </v>
    </varray>
   </crystal>
   <varray name="positions" >
    <v>       0.50000000       0.60324194       0.61640049 </v>
    <v>       0.41059520       0.44838013       0.61639707 </v>
    <v>       0.58940480       0.44838013       0.61639707 </v>
    <v>       0.50000000       0.39675806       0.38359951 </v>
    <v>       0.41059520       0.55161987       0.38360293 </v>
    <v>       0.58940480       0.55161987       0.38360293 </v>
    <v>       0.50000000       0.49999940       0.57477003 </v>
    <v>       0.50000000       0.50000060       0.42522997 </v>
   </varray>
  </structure>
  <varray name="forces" >
   <v>       0.00000000      -0.26765007      -0.10915161 </v>
   <v>       0.23073388       0.13282003      -0.10898549 </v>
   <v>      -0.23073388       0.13282003      -0.10898549 </v>
   <v>       0.00000000       0.26765007       0.10915161 </v>
   <v>       0.23073388      -0.13282003       0.10898549 </v>
   <v>      -0.23073388      -0.13282003       0.10898549 </v>
   <v>       0.00000000       0.00154597       1.10195843 </v>
   <v>       0.00000000      -0.00154597      -1.10195843 </v>
  </varray>
  <varray name="stress" >
   <v>      -3.99515872       0.00000000       0.00000000 </v>
   <v>       0.00000000      -4.01958489      -0.00311521 </v>
   <v>       0.00000000      -0.00311457      -0.86798761 </v>
  </varray>
  <energy>
   <i name="e_fr_energy">    -40.42620019 </i>
   <i name="e_wo_entrp">    -40.42620019 </i>
   <i name="e_0_energy">      0.00000000 </i>
  </energy>
  <time name="totalsc">   39.15   39.59</time>
 </calculation>
 <calculation>
  <scstep>
   <time name="dav">    3.52    3.52</time>
   <time name="total">    7.83    7.84</time>
   <energy>
    <i name="alphaZ">      0.77500207 </i>
    <i name="ewald">    329.72812390 </i>
    <i name="hartreedc">   -625.39280938 </i>
    <i name="XCdc">     45.34347148 </i>
    <i name="pawpsdc">    164.81696120 </i>
    <i name="pawaedc">   -167.49146261 </i>
    <i name="eentropy">      0.00000000 </i>
    <i name="bandstr">   -157.17546181 </i>
    <i name="atom">    368.95004178 </i>
    <i name="e_fr_energy">    -40.44613338 </i>
    <i name="e_wo_entrp">    -40.44613338 </i>
    <i name="e_0_energy">    -40.44613338 </i>
   </energy>
  </scstep>
  <scstep>
   <time name="dav">    2.93    2.93</time>
   <time name="total">    7.60    7.64</time>
   <energy>
    <i name="e_fr_energy">    -40.44507612 </i>
    <i name="e_wo_entrp">    -40.44507612 </i>
    <i name="e_0_energy">    -40.44507612 </i>
   </energy>
  </scstep>
  <scstep>
   <time name="dav">    3.42    3.42</time>
   <time name="total">    8.08    8.09</time>
   <energy>
    <i name="e_fr_energy">    -40.44457060 </i>
    <i name="e_wo_entrp">    -40.44457060 </i>
    <i name="e_0_energy">    -40.44457060 </i>
   </energy>
  </scstep>
  <scstep>
   <time name="dav">    3.49    3.49</time>
   <time name="total">    7.57    7.63</time>
   <energy>
    <i name="alphaZ">      0.77500207 </i>
    <i name="ewald">    329.72812390 </i>
    <i name="hartreedc">   -626.33493275 </i>
    <i name="XCdc">     45.40422629 </i>
    <i name="pawpsdc">    167.31634995 </i>
    <i name="pawaedc">   -170.00223139 </i>
    <i name="eentropy">      0.00000000 </i>
    <i name="bandstr">   -156.28109894 </i>
    <i name="atom">    368.95004178 </i>
    <i name="e_fr_energy">    -40.44451909 </i>
    <i name="e_wo_entrp">    -40.44451909 </i>
    <i name="e_0_energy">    -40.44451909 </i>
   </energy>
  </scstep>
  <structure>
   <crystal>
    <varray name="basis" >
     <v>      10.00000000       0.00000000       0.00000000 </v>
     <v>       0.00000000      10.00000000       0.00000000 </v>
     <v>       0.00000000       0.00000000      10.00000000 </v>
    </varray>
    <i name="volume">   1000.00000000 </i>
    <varray name="rec_basis" >
     <v>       0.10000000       0.00000000       0.00000000 </v>
     <v>       0.00000000       0.10000000       0.00000000 </v>
     <v>       0.00000000       0.00000000       0.10000000 </v>
    </varray>
   </crystal>
   <varray name="positions" >
    <v>       0.50000000       0.60240371       0.61597859 </v>
    <v>       0.41131778       0.44879853       0.61597730 </v>
    <v>       0.58868222       0.44879853       0.61597730 </v>
    <v>       0.50000000       0.39759629       0.38402141 </v>
    <v>       0.41131778       0.55120147       0.38402270 </v>
    <v>       0.58868222       0.55120147       0.38402270 </v>
    <v>       0.50000000       0.49999978       0.57567341 </v>
    <v>       0.50000000       0.50000022       0.42432659 </v>
   </varray>
  </structure>
  <varray name="forces" >
   <v>       0.00000000       0.06328311       0.04545129 </v>
   <v>      -0.05454423      -0.03180966       0.04504739 </v>
   <v>       0.05454423      -0.03180966       0.04504739 </v>
   <v>       0.00000000      -0.06328311      -0.04545129 </v>
   <v>      -0.05454423       0.03180966      -0.04504739 </v>
   <v>       0.05454423       0.03180966      -0.04504739 </v>
   <v>       0.00000000       0.00066175       0.23838176 </v>
   <v>       0.00000000      -0.00066175      -0.23838176 </v>
  </varray>
  <varray name="stress" >
   <v>      -2.38819301       0.00000000       0.00000000 </v>
   <v>       0.00000000      -2.40716655      -0.00079706 </v>
   <v>       0.00000000      -0.00079709      -1.22041321 </v>
  </varray>
  <energy>
   <i name="e_fr_energy">    -40.44451909 </i>
   <i name="e_wo_entrp">    -40.44451909 </i>
   <i name="e_0_energy">      0.00000000 </i>
  </energy>
  <time name="totalsc">   39.41   39.61</time>
 </calculation>
 <calculation>
  <scstep>
   <time name="dav">    3.04    3.04</time>
   <time name="total">    7.42    7.42</time>
   <energy>
    <i name="alphaZ">      0.77500207 </i>
    <i name="ewald">    326.20946477 </i>
    <i name="hartreedc">   -623.75292824 </i>
    <i name="XCdc">     45.33441578 </i>
    <i name="pawpsdc">    167.49764639 </i>
    <i name="pawaedc">   -170.18345291 </i>
    <i name="eentropy">      0.00000000 </i>
    <i name="bandstr">   -155.27755392 </i>
    <i name="atom">    368.95004178 </i>
    <i name="e_fr_energy">    -40.44736428 </i>
    <i name="e_wo_entrp">    -40.44736428 </i>
    <i name="e_0_energy">    -40.44736428 </i>
   </energy>
  </scstep>
  <scstep>
   <time name="dav">    2.98    2.98</time>
   <time name="total">    7.42    7.47</time>
   <energy>
    <i name="e_fr_energy">    -40.44654892 </i>
    <i name="e_wo_entrp">    -40.44654892 </i>
    <i name="e_0_energy">    -40.44654892 </i>
   </energy>
  </scstep>
  <scstep>
   <time name="dav">    3.46    3.46</time>
   <time name="total">    8.08    8.09</time>
   <energy>
    <i name="e_fr_energy">    -40.44647222 </i>
    <i name="e_wo_entrp">    -40.44647222 </i>
    <i name="e_0_energy">    -40.44647222 </i>
   </energy>
  </scstep>
  <scstep>
   <time name="dav">    3.45    3.45</time>
   <time name="total">    7.50    7.52</time>
   <energy>
    <i name="alphaZ">      0.77500207 </i>
    <i name="ewald">    326.20946477 </i>
    <i name="hartreedc">   -623.11382443 </i>
    <i name="XCdc">     45.30731052 </i>
    <i name="pawpsdc">    165.77821352 </i>
    <i name="pawaedc">   -168.45488042 </i>
    <i name="eentropy">      0.00000000 </i>
    <i name="bandstr">   -155.89771792 </i>
    <i name="atom">    368.95004178 </i>
    <i name="e_fr_energy">    -40.44639014 </i>
    <i name="e_wo_entrp">    -40.44639014 </i>
    <i name="e_0_energy">    -40.44639014 </i>
   </energy>
  </scstep>
  <structure>
   <crystal>
    <varray name="basis" >
     <v>      10.00000000       0.00000000       0.00000000 </v>
     <v>       0.00000000      10.00000000       0.00000000 </v>
     <v>       0.00000000       0.00000000      10.00000000 </v>
    </varray>
    <i name="volume">   1000.00000000 </i>
    <varray name="rec_basis" >
     <v>       0.10000000       0.00000000       0.00000000 </v>
     <v>       0.00000000       0.10000000       0.00000000 </v>
     <v>       0.00000000       0.00000000       0.10000000 </v>
    </varray>
   </crystal>
   <varray name="positions" >
    <v>       0.50000000       0.60290224       0.61628695 </v>
    <v>       0.41088806       0.44854875       0.61628337 </v>
    <v>       0.58911194       0.44854875       0.61628337 </v>
    <v>       0.50000000       0.39709776       0.38371305 </v>
    <v>       0.41088806       0.55145125       0.38371663 </v>
    <v>       0.58911194       0.55145125       0.38371663 </v>
    <v>       0.50000000       0.50000247       0.57643099 </v>
    <v>       0.50000000       0.49999753       0.42356901 </v>
   </varray>
  </structure>
  <varray name="forces" >
   <v>       0.00000000      -0.04567698       0.01949579 </v>
   <v>       0.03991995       0.02279333       0.01919423 </v>
   <v>      -0.03991995       0.02279333       0.01919423 </v>
   <v>       0.00000000       0.04567698      -0.01949579 </v>
   <v>       0.03991995      -0.02279333      -0.01919423 </v>
   <v>      -0.03991995      -0.02279333      -0.01919423 </v>
   <v>       0.00000000      -0.00059035      -0.09388200 </v>
   <v>       0.00000000       0.00059035       0.09388200 </v>
  </varray>
  <varray name="stress" >
   <v>      -2.83464990       0.00000000       0.00000000 </v>
   <v>       0.00000000      -2.85482963      -0.00148937 </v>
   <v>       0.00000000      -0.00149009      -2.27437610 </v>
  </varray>
  <energy>
   <i name="e_fr_energy">    -40.44639014 </i>
   <i name="e_wo_entrp">    -40.44639014 </i>
   <i name="e_0_energy">      0.00000000 </i>
  </energy>
  <time name="totalsc">   38.85   38.97</time>
 </calculation>
 <calculation>
  <scstep>
   <time name="dav">    2.79    2.79</time>
   <time name="total">    7.27    7.27</time>
   <energy>
    <i name="alphaZ">      0.77500207 </i>
    <i name="ewald">    327.18359627 </i>
    <i name="hartreedc">   -623.84427301 </i>
    <i name="XCdc">     45.32707403 </i>
    <i name="pawpsdc">    165.62370487 </i>
    <i name="pawaedc">   -168.30065368 </i>
    <i name="eentropy">      0.00000000 </i>
    <i name="bandstr">   -156.16131736 </i>
    <i name="atom">    368.95004178 </i>
    <i name="e_fr_energy">    -40.44682504 </i>
    <i name="e_wo_entrp">    -40.44682504 </i>
    <i name="e_0_energy">    -40.44682504 </i>
   </energy>
  </scstep>
  <scstep>
   <time name="dav">    3.77    3.77</time>
   <time name="total">    7.53    7.54</time>
   <energy>
    <i name="alphaZ">      0.77500207 </i>
    <i name="ewald">    327.18359627 </i>
    <i name="hartreedc">   -623.97526690 </i>
    <i name="XCdc">     45.33239556 </i>
    <i name="pawpsdc">    165.91465856 </i>
    <i name="pawaedc">   -168.59328260 </i>
    <i name="eentropy">      0.00000000 </i>
    <i name="bandstr">   -156.03388215 </i>
    <i name="atom">    368.95004178 </i>
    <i name="e_fr_energy">    -40.44673742 </i>
    <i name="e_wo_entrp">    -40.44673742 </i>
    <i name="e_0_energy">    -40.44673742 </i>
   </energy>
  </scstep>
  <structure>
   <crystal>
    <varray name="basis" >
     <v>      10.00000000       0.00000000       0.00000000 </v>
     <v>       0.00000000      10.00000000       0.00000000 </v>
     <v>       0.00000000       0.00000000      10.00000000 </v>
    </varray>
    <i name="volume">   1000.00000000 </i>
    <varray name="rec_basis" >
     <v>       0.10000000       0.00000000       0.00000000 </v>
     <v>       0.00000000       0.10000000       0.00000000 </v>
     <v>       0.00000000       0.00000000       0.10000000 </v>
    </varray>
   </crystal>
   <varray name="positions" >
    <v>       0.50000000       0.60276368       0.61620124 </v>
    <v>       0.41100750       0.44861817       0.61619830 </v>
    <v>       0.58899250       0.44861817       0.61619830 </v>
    <v>       0.50000000       0.39723632       0.38379876 </v>
    <v>       0.41100750       0.55138183       0.38380170 </v>
    <v>       0.58899250       0.55138183       0.38380170 </v>
    <v>       0.50000000       0.50000172       0.57622043 </v>
    <v>       0.50000000       0.49999828       0.42377957 </v>
   </varray>
  </structure>
  <varray name="forces" >
   <v>       0.00000000      -0.01797267       0.02469400 </v>
   <v>       0.01593411       0.00893988       0.02433983 </v>
   <v>      -0.01593411       0.00893988       0.02433983 </v>
   <v>       0.00000000       0.01797267      -0.02469400 </v>
   <v>       0.01593411      -0.00893988      -0.02433983 </v>
   <v>      -0.01593411      -0.00893988      -0.02433983 </v>
   <v>       0.00000000      -0.00021677      -0.01462164 </v>
   <v>       0.00000000       0.00021677       0.01462164 </v>
  </varray>
  <varray name="stress" >
   <v>      -2.64097680       0.00000000       0.00000000 </v>
   <v>       0.00000000      -2.66021728      -0.00122631 </v>
   <v>       0.00000000      -0.00122613      -1.95902885 </v>
  </varray>
  <energy>
   <i name="e_fr_energy">    -40.44673742 </i>
   <i name="e_wo_entrp">    -40.44673742 </i>
   <i name="e_0_energy">      0.00000000 </i>
  </energy>
  <time name="totalsc">   22.11   22.33</time>
  <eigenvalues>
   <array>
    <dimension dim="1">band</dimension>
    <dimension dim="2">kpoint</dimension>
    <dimension dim="3">spin</dimension>
    <field>eigene</field>
    <field>occ</field>
    <set>
     <set comment="spin 1">
      <set comment="kpoint 1">
       <r>  -18.3257    1.0000 </r>
       <r>  -14.7487    1.0000 </r>
       <r>  -10.2716    1.0000 </r>
       <r>  -10.2714    1.0000 </r>
       <r>   -8.6659    1.0000 </r>
       <r>   -7.8671    1.0000 </r>
       <r>   -7.8667    1.0000 </r>
       <r>   -0.5014    0.0000 </r>
       <r>    0.6775    0.0000 </r>
       <r>    0.8875    0.0000 </r>
       <r>    0.8880    0.0000 </r>
       <r>    1.0059    0.0000 </r>
       <r>    1.0656    0.0000 </r>
       <r>    1.3016    0.0000 </r>
       <r>    1.8572    0.0000 </r>
       <r>    2.4106    0.0000 </r>
      </set>
     </set>
     <set comment="spin 2">
      <set comment="kpoint 1">
       <r>  -18.3256    1.0000 </r>
       <r>  -14.7486    1.0000 </r>
       <r>  -10.2715    1.0000 </r>
       <r>  -10.2713    1.0000 </r>
       <r>   -8.6659    1.0000 </r>
       <r>   -7.8671    1.0000 </r>
       <r>   -7.8667    1.0000 </r>
       <r>   -0.5015    0.0000 </r>
       <r>    0.6775    0.0000 </r>
       <r>    0.8872    0.0000 </r>
       <r>    0.8877    0.0000 </r>
       <r>    1.0053    0.0000 </r>
       <r>    1.0652    0.0000 </r>
       <r>    1.3023    0.0000 </r>
       <r>    1.8570    0.0000 </r>
       <r>    2.4113    0.0000 </r>
      </set>
     </set>
    </set>
   </array>
  </eigenvalues>
  <separator name="orbital magnetization" >
   <v name="MAGDIPOLOUT">      0.00000000      0.00000000      0.00000000</v>
  </separator>
  <dos>
   <i name="efermi">     -6.88509751 </i>
   <total>
    <array>
     <dimension dim="1">gridpoints</dimension>
     <dimension dim="2">spin</dimension>
     <field>energy</field>
     <field>total</field>
     <field>integrated</field>
     <set>
      <set comment="spin 1">
       <r>   -20.3257     0.0000     0.0000 </r>
       <r>   -20.2432     0.0000     0.0000 </r>
       <r>   -20.1608     0.0000     0.0000 </r>
       <r>   -20.0783     0.0000     0.0000 </r>
       <r>   -19.9958     0.0000     0.0000 </r>
       <r>   -19.9134     0.0000     0.0000 </r>
       <r>   -19.8309     0.0000     0.0000 </r>
       <r>   -19.7485     0.0000     0.0000 </r>
       <r>   -19.6660     0.0000     0.0000 </r>
       <r>   -19.5836     0.0000     0.0000 </r>
       <r>   -19.5011     0.0000     0.0000 </r>
       <r>   -19.4186     0.0000     0.0000 </r>
       <r>   -19.3362     0.0000     0.0000 </r>
       <r>   -19.2537     0.0000     0.0000 </r>
       <r>   -19.1713     0.0000     0.0000 </r>
       <r>   -19.0888     0.0000     0.0000 </r>
       <r>   -19.0064     0.0000     0.0000 </r>
       <r>   -18.9239     0.0001     0.0000 </r>
       <r>   -18.8414     0.0015     0.0001 </r>
       <r>   -18.7590     0.0116     0.0011 </r>
       <r>   -18.6765     0.0662     0.0066 </r>
       <r>   -18.5941     0.2704     0.0288 </r>
       <r>   -18.5116     0.7934     0.0943 </r>
       <r>   -18.4292     1.6719     0.2321 </r>
       <r>   -18.3467     2.5314     0.4409 </r>
       <r>   -18.2643     2.7541     0.6679 </r>
       <r>   -18.1818     2.1532     0.8455 </r>
       <r>   -18.0993     1.2097     0.9452 </r>
       <r>   -18.0169     0.4882     0.9855 </r>
       <r>   -17.9344     0.1415     0.9972 </r>
       <r>   -17.8520     0.0295     0.9996 </r>
       <r>   -17.7695     0.0044     1.0000 </r>
       <r>   -17.6871     0.0005     1.0000 </r>
       <r>   -17.6046     0.0000     1.0000 </r>
       <r>   -17.5221     0.0000     1.0000 </r>
       <r>   -17.4397     0.0000     1.0000 </r>
       <r>   -17.3572     0.0000     1.0000 </r>
       <r>   -17.2748     0.0000     1.0000 </r>
       <r>   -17.1923     0.0000     1.0000 </r>
       <r>   -17.1099     0.0000     1.0000 </r>
       <r>   -17.0274     0.0000     1.0000 </r>
       <r>   -16.9450     0.0000     1.0000 </r>
       <r>   -16.8625     0.0000     1.0000 </r>
       <r>   -16.7800     0.0000     1.0000 </r>
       <r>   -16.6976     0.0000     1.0000 </r>
       <r>   -16.6151     0.0000     1.0000 </r>
       <r>   -16.5327     0.0000     1.0000 </r>
       <r>   -16.4502     0.0000     1.0000 </r>
       <r>   -16.3678     0.0000     1.0000 </r>
       <r>   -16.2853     0.0000     1.0000 </r>
       <r>   -16.2028     0.0000     1.0000 </r>
       <r>   -16.1204     0.0000     1.0000 </r>
       <r>   -16.0379     0.0000     1.0000 </r>
       <r>   -15.9555     0.0000     1.0000 </r>
       <r>   -15.8730     0.0000     1.0000 </r>
       <r>   -15.7906     0.0000     1.0000 </r>
       <r>   -15.7081     0.0000     1.0000 </r>
       <r>   -15.6256     0.0000     1.0000 </r>
       <r>   -15.5432     0.0000     1.0000 </r>
       <r>   -15.4607     0.0000     1.0000 </r>
       <r>   -15.3783     0.0000     1.0000 </r>
       <r>   -15.2958     0.0006     1.0001 </r>
       <r>   -15.2134     0.0055     1.0005 </r>
       <r>   -15.1309     0.0355     1.0034 </r>
       <r>   -15.0485     0.1647     1.0170 </r>
       <r>   -14.9660     0.5479     1.0622 </r>
       <r>   -14.8835     1.3093     1.1702 </r>
       <r>   -14.8011     2.2479     1.3555 </r>
       <r>   -14.7186     2.7731     1.5842 </r>
       <r>   -14.6362     2.4583     1.7869 </r>
       <r>   -14.5537     1.5660     1.9160 </r>
       <r>   -14.4713     0.7167     1.9751 </r>
       <r>   -14.3888     0.2356     1.9945 </r>
       <r>   -14.3063     0.0556     1.9991 </r>
       <r>   -14.2239     0.0094     1.9999 </r>
       <r>   -14.1414     0.0011     2.0000 </r>
       <r>   -14.0590     0.0001     2.0000 </r>
       <r>   -13.9765     0.0000     2.0000 </r>
       <r>   -13.8941     0.0000     2.0000 </r>
       <r>   -13.8116     0.0000     2.0000 </r>
       <r>   -13.7291     0.0000     2.0000 </r>
       <r>   -13.6467     0.0000     2.0000 </r>
       <r>   -13.5642     0.0000     2.0000 </r>
       <r>   -13.4818     0.0000     2.0000 </r>
       <r>   -13.3993     0.0000     2.0000 </r>
       <r>   -13.3169     0.0000     2.0000 </r>
       <r>   -13.2344     0.0000     2.0000 </r>
       <r>   -13.1520     0.0000     2.0000 </r>
       <r>   -13.0695     0.0000     2.0000 </r>
       <r>   -12.9870     0.0000     2.0000 </r>
       <r>   -12.9046     0.0000     2.0000 </r>
       <r>   -12.8221     0.0000     2.0000 </r>
       <r>   -12.7397     0.0000     2.0000 </r>
       <r>   -12.6572     0.0000     2.0000 </r>
       <r>   -12.5748     0.0000     2.0000 </r>
       <r>   -12.4923     0.0000     2.0000 </r>
       <r>   -12.4098     0.0000     2.0000 </r>
       <r>   -12.3274     0.0000     2.0000 </r>
       <r>   -12.2449     0.0000     2.0000 </r>
       <r>   -12.1625     0.0000     2.0000 </r>
       <r>   -12.0800     0.0000     2.0000 </r>
       <r>   -11.9976     0.0000     2.0000 </r>
       <r>   -11.9151     0.0000     2.0000 </r>
       <r>   -11.8326     0.0000     2.0000 </r>
       <r>   -11.7502     0.0000     2.0000 </r>
       <r>   -11.6677     0.0000     2.0000 </r>
       <r>   -11.5853     0.0000     2.0000 </r>
       <r>   -11.5028     0.0000     2.0000 </r>
       <r>   -11.4204     0.0000     2.0000 </r>
       <r>   -11.3379     0.0000     2.0000 </r>
       <r>   -11.2555     0.0000     2.0000 </r>
       <r>   -11.1730     0.0000     2.0000 </r>
       <r>   -11.0905     0.0000     2.0000 </r>
       <r>   -11.0081     0.0000     2.0000 </r>
       <r>   -10.9256     0.0000     2.0000 </r>
       <r>   -10.8432     0.0006     2.0001 </r>
       <r>   -10.7607     0.0059     2.0005 </r>
       <r>   -10.6783     0.0422     2.0040 </r>
       <r>   -10.5958     0.2160     2.0218 </r>
       <r>   -10.5133     0.7930     2.0872 </r>
       <r>   -10.4309     2.0913     2.2597 </r>
       <r>   -10.3484     3.9620     2.5864 </r>
       <r>   -10.2660     5.3931     3.0311 </r>
       <r>   -10.1835     5.2754     3.4660 </r>
       <r>   -10.1011     3.7082     3.7718 </r>
       <r>   -10.0186     1.8728     3.9262 </r>
       <r>    -9.9361     0.6795     3.9823 </r>
       <r>    -9.8537     0.1770     3.9969 </r>
       <r>    -9.7712     0.0331     3.9996 </r>
       <r>    -9.6888     0.0044     4.0000 </r>
       <r>    -9.6063     0.0004     4.0000 </r>
       <r>    -9.5239     0.0000     4.0000 </r>
       <r>    -9.4414     0.0000     4.0000 </r>
       <r>    -9.3590     0.0000     4.0000 </r>
       <r>    -9.2765     0.0001     4.0000 </r>
       <r>    -9.1940     0.0010     4.0001 </r>
       <r>    -9.1116     0.0087     4.0008 </r>
       <r>    -9.0291     0.0521     4.0051 </r>
       <r>    -8.9467     0.2238     4.0236 </r>
       <r>    -8.8642     0.6899     4.0805 </r>
       <r>    -8.7818     1.5275     4.2064 </r>
       <r>    -8.6993     2.4297     4.4068 </r>
       <r>    -8.6168     2.7773     4.6358 </r>
       <r>    -8.5344     2.2813     4.8239 </r>
       <r>    -8.4519     1.3469     4.9349 </r>
       <r>    -8.3695     0.5751     4.9824 </r>
       <r>    -8.2870     0.2053     4.9993 </r>
       <r>    -8.2046     0.2077     5.0164 </r>
       <r>    -8.1221     0.6633     5.0711 </r>
       <r>    -8.0396     1.8293     5.2219 </r>
       <r>    -7.9572     3.6543     5.5233 </r>
       <r>    -7.8747     5.2471     5.9559 </r>
       <r>    -7.7923     5.4141     6.4024 </r>
       <r>    -7.7098     4.0144     6.7334 </r>
       <r>    -7.6274     2.1387     6.9097 </r>
       <r>    -7.5449     0.8186     6.9772 </r>
       <r>    -7.4625     0.2250     6.9958 </r>
       <r>    -7.3800     0.0444     6.9994 </r>
       <r>    -7.2975     0.0063     6.9999 </r>
       <r>    -7.2151     0.0006     7.0000 </r>
       <r>    -7.1326     0.0000     7.0000 </r>
       <r>    -7.0502     0.0000     7.0000 </r>
       <r>    -6.9677     0.0000     7.0000 </r>
       <r>    -6.8853     0.0000     7.0000 </r>
       <r>    -6.8028     0.0000     7.0000 </r>
       <r>    -6.7203     0.0000     7.0000 </r>
       <r>    -6.6379     0.0000     7.0000 </r>
       <r>    -6.5554     0.0000     7.0000 </r>
       <r>    -6.4730     0.0000     7.0000 </r>
       <r>    -6.3905     0.0000     7.0000 </r>
       <r>    -6.3081     0.0000     7.0000 </r>
       <r>    -6.2256     0.0000     7.0000 </r>
       <r>    -6.1432     0.0000     7.0000 </r>
       <r>    -6.0607     0.0000     7.0000 </r>
       <r>    -5.9782     0.0000     7.0000 </r>
       <r>    -5.8958     0.0000     7.0000 </r>
       <r>    -5.8133     0.0000     7.0000 </r>
       <r>    -5.7309     0.0000     7.0000 </r>
       <r>    -5.6484     0.0000     7.0000 </r>
       <r>    -5.5660     0.0000     7.0000 </r>
       <r>    -5.4835     0.0000     7.0000 </r>
       <r>    -5.4010     0.0000     7.0000 </r>
       <r>    -5.3186     0.0000     7.0000 </r>
       <r>    -5.2361     0.0000     7.0000 </r>
       <r>    -5.1537     0.0000     7.0000 </r>
       <r>    -5.0712     0.0000     7.0000 </r>
       <r>    -4.9888     0.0000     7.0000 </r>
       <r>    -4.9063     0.0000     7.0000 </r>
       <r>    -4.8238     0.0000     7.0000 </r>
       <r>    -4.7414     0.0000     7.0000 </r>
       <r>    -4.6589     0.0000     7.0000 </r>
       <r>    -4.5765     0.0000     7.0000 </r>
       <r>    -4.4940     0.0000     7.0000 </r>
       <r>    -4.4116     0.0000     7.0000 </r>
       <r>    -4.3291     0.0000     7.0000 </r>
       <r>    -4.2467     0.0000     7.0000 </r>
       <r>    -4.1642     0.0000     7.0000 </r>
       <r>    -4.0817     0.0000     7.0000 </r>
       <r>    -3.9993     0.0000     7.0000 </r>
       <r>    -3.9168     0.0000     7.0000 </r>
       <r>    -3.8344     0.0000     7.0000 </r>
       <r>    -3.7519     0.0000     7.0000 </r>
       <r>    -3.6695     0.0000     7.0000 </r>
       <r>    -3.5870     0.0000     7.0000 </r>
       <r>    -3.5045     0.0000     7.0000 </r>
       <r>    -3.4221     0.0000     7.0000 </r>
       <r>    -3.3396     0.0000     7.0000 </r>
       <r>    -3.2572     0.0000     7.0000 </r>
       <r>    -3.1747     0.0000     7.0000 </r>
       <r>    -3.0923     0.0000     7.0000 </r>
       <r>    -3.0098     0.0000     7.0000 </r>
       <r>    -2.9273     0.0000     7.0000 </r>
       <r>    -2.8449     0.0000     7.0000 </r>
       <r>    -2.7624     0.0000     7.0000 </r>
       <r>    -2.6800     0.0000     7.0000 </r>
       <r>    -2.5975     0.0000     7.0000 </r>
       <r>    -2.5151     0.0000     7.0000 </r>
       <r>    -2.4326     0.0000     7.0000 </r>
       <r>    -2.3502     0.0000     7.0000 </r>
       <r>    -2.2677     0.0000     7.0000 </r>
       <r>    -2.1852     0.0000     7.0000 </r>
       <r>    -2.1028     0.0000     7.0000 </r>
       <r>    -2.0203     0.0000     7.0000 </r>
       <r>    -1.9379     0.0000     7.0000 </r>
       <r>    -1.8554     0.0000     7.0000 </r>
       <r>    -1.7730     0.0000     7.0000 </r>
       <r>    -1.6905     0.0000     7.0000 </r>
       <r>    -1.6080     0.0000     7.0000 </r>
       <r>    -1.5256     0.0000     7.0000 </r>
       <r>    -1.4431     0.0000     7.0000 </r>
       <r>    -1.3607     0.0000     7.0000 </r>
       <r>    -1.2782     0.0000     7.0000 </r>
       <r>    -1.1958     0.0000     7.0000 </r>
       <r>    -1.1133     0.0001     7.0000 </r>
       <r>    -1.0308     0.0010     7.0001 </r>
       <r>    -0.9484     0.0084     7.0008 </r>
       <r>    -0.8659     0.0507     7.0050 </r>
       <r>    -0.7835     0.2190     7.0230 </r>
       <r>    -0.7010     0.6789     7.0790 </r>
       <r>    -0.6186     1.5114     7.2036 </r>
       <r>    -0.5361     2.4175     7.4030 </r>
       <r>    -0.4537     2.7787     7.6321 </r>
       <r>    -0.3712     2.2950     7.8213 </r>
       <r>    -0.2887     1.3621     7.9336 </r>
       <r>    -0.2063     0.5808     7.9815 </r>
       <r>    -0.1238     0.1779     7.9962 </r>
       <r>    -0.0414     0.0391     7.9994 </r>
       <r>     0.0411     0.0062     7.9999 </r>
       <r>     0.1235     0.0012     8.0000 </r>
       <r>     0.2060     0.0047     8.0004 </r>
       <r>     0.2885     0.0311     8.0030 </r>
       <r>     0.3709     0.1498     8.0153 </r>
       <r>     0.4534     0.5257     8.0587 </r>
       <r>     0.5358     1.3694     8.1716 </r>
       <r>     0.6183     2.7496     8.3983 </r>
       <r>     0.7007     4.5295     8.7718 </r>
       <r>     0.7832     6.5646     9.3131 </r>
       <r>     0.8657     8.6294    10.0247 </r>
       <r>     0.9481    10.0502    10.8534 </r>
       <r>     1.0306    10.0276    11.6802 </r>
       <r>     1.1130     8.5576    12.3858 </r>
       <r>     1.1955     6.5691    12.9275 </r>
       <r>     1.2779     4.9284    13.3339 </r>
       <r>     1.3604     3.6627    13.6359 </r>
       <r>     1.4428     2.4488    13.8378 </r>
       <r>     1.5253     1.3838    13.9519 </r>
       <r>     1.6078     0.8697    14.0236 </r>
       <r>     1.6902     1.1190    14.1159 </r>
       <r>     1.7727     1.9256    14.2747 </r>
       <r>     1.8551     2.6630    14.4943 </r>
       <r>     1.9376     2.6846    14.7156 </r>
       <r>     2.0200     1.9712    14.8782 </r>
       <r>     2.1025     1.1538    14.9733 </r>
       <r>     2.1850     0.8706    15.0451 </r>
       <r>     2.2674     1.3187    15.1538 </r>
       <r>     2.3499     2.1803    15.3336 </r>
       <r>     2.4323     2.7586    15.5611 </r>
       <r>     2.5148     2.5263    15.7694 </r>
       <r>     2.5972     1.6637    15.9066 </r>
       <r>     2.6797     0.7873    15.9715 </r>
       <r>     2.7622     0.2676    15.9935 </r>
       <r>     2.8446     0.0653    15.9989 </r>
       <r>     2.9271     0.0114    15.9999 </r>
       <r>     3.0095     0.0014    16.0000 </r>
       <r>     3.0920     0.0001    16.0000 </r>
       <r>     3.1744     0.0000    16.0000 </r>
       <r>     3.2569     0.0000    16.0000 </r>
       <r>     3.3393     0.0000    16.0000 </r>
       <r>     3.4218     0.0000    16.0000 </r>
       <r>     3.5043     0.0000    16.0000 </r>
       <r>     3.5867     0.0000    16.0000 </r>
       <r>     3.6692     0.0000    16.0000 </r>
       <r>     3.7516     0.0000    16.0000 </r>
       <r>     3.8341     0.0000    16.0000 </r>
       <r>     3.9165     0.0000    16.0000 </r>
       <r>     3.9990     0.0000    16.0000 </r>
       <r>     4.0815     0.0000    16.0000 </r>
       <r>     4.1639     0.0000    16.0000 </r>
       <r>     4.2464     0.0000    16.0000 </r>
       <r>     4.3288     0.0000    16.0000 </r>
       <r>     4.4113     0.0000    16.0000 </r>
      </set>
      <set comment="spin 2">
       <r>   -20.3257     0.0000     0.0000 </r>
       <r>   -20.2432     0.0000     0.0000 </r>
       <r>   -20.1608     0.0000     0.0000 </r>
       <r>   -20.0783     0.0000     0.0000 </r>
       <r>   -19.9958     0.0000     0.0000 </r>
       <r>   -19.9134     0.0000     0.0000 </r>
       <r>   -19.8309     0.0000     0.0000 </r>
       <r>   -19.7485     0.0000     0.0000 </r>
       <r>   -19.6660     0.0000     0.0000 </r>
       <r>   -19.5836     0.0000     0.0000 </r>
       <r>   -19.5011     0.0000     0.0000 </r>
       <r>   -19.4186     0.0000     0.0000 </r>
       <r>   -19.3362     0.0000     0.0000 </r>
       <r>   -19.2537     0.0000     0.0000 </r>
       <r>   -19.1713     0.0000     0.0000 </r>
       <r>   -19.0888     0.0000     0.0000 </r>
       <r>   -19.0064     0.0000     0.0000 </r>
       <r>   -18.9239     0.0001     0.0000 </r>
       <r>   -18.8414     0.0015     0.0001 </r>
       <r>   -18.7590     0.0116     0.0011 </r>
       <r>   -18.6765     0.0661     0.0065 </r>
       <r>   -18.5941     0.2702     0.0288 </r>
       <r>   -18.5116     0.7929     0.0942 </r>
       <r>   -18.4292     1.6712     0.2320 </r>
       <r>   -18.3467     2.5309     0.4407 </r>
       <r>   -18.2643     2.7543     0.6678 </r>
       <r>   -18.1818     2.1539     0.8454 </r>
       <r>   -18.0993     1.2103     0.9452 </r>
       <r>   -18.0169     0.4886     0.9855 </r>
       <r>   -17.9344     0.1417     0.9972 </r>
       <r>   -17.8520     0.0295     0.9996 </r>
       <r>   -17.7695     0.0044     1.0000 </r>
       <r>   -17.6871     0.0005     1.0000 </r>
       <r>   -17.6046     0.0000     1.0000 </r>
       <r>   -17.5221     0.0000     1.0000 </r>
       <r>   -17.4397     0.0000     1.0000 </r>
       <r>   -17.3572     0.0000     1.0000 </r>
       <r>   -17.2748     0.0000     1.0000 </r>
       <r>   -17.1923     0.0000     1.0000 </r>
       <r>   -17.1099     0.0000     1.0000 </r>
       <r>   -17.0274     0.0000     1.0000 </r>
       <r>   -16.9450     0.0000     1.0000 </r>
       <r>   -16.8625     0.0000     1.0000 </r>
       <r>   -16.7800     0.0000     1.0000 </r>
       <r>   -16.6976     0.0000     1.0000 </r>
       <r>   -16.6151     0.0000     1.0000 </r>
       <r>   -16.5327     0.0000     1.0000 </r>
       <r>   -16.4502     0.0000     1.0000 </r>
       <r>   -16.3678     0.0000     1.0000 </r>
       <r>   -16.2853     0.0000     1.0000 </r>
       <r>   -16.2028     0.0000     1.0000 </r>
       <r>   -16.1204     0.0000     1.0000 </r>
       <r>   -16.0379     0.0000     1.0000 </r>
       <r>   -15.9555     0.0000     1.0000 </r>
       <r>   -15.8730     0.0000     1.0000 </r>
       <r>   -15.7906     0.0000     1.0000 </r>
       <r>   -15.7081     0.0000     1.0000 </r>
       <r>   -15.6256     0.0000     1.0000 </r>
       <r>   -15.5432     0.0000     1.0000 </r>
       <r>   -15.4607     0.0000     1.0000 </r>
       <r>   -15.3783     0.0000     1.0000 </r>
       <r>   -15.2958     0.0006     1.0001 </r>
       <r>   -15.2134     0.0055     1.0005 </r>
       <r>   -15.1309     0.0355     1.0034 </r>
       <r>   -15.0485     0.1645     1.0170 </r>
       <r>   -14.9660     0.5474     1.0621 </r>
       <r>   -14.8835     1.3086     1.1700 </r>
       <r>   -14.8011     2.2472     1.3553 </r>
       <r>   -14.7186     2.7730     1.5840 </r>
       <r>   -14.6362     2.4589     1.7867 </r>
       <r>   -14.5537     1.5668     1.9159 </r>
       <r>   -14.4713     0.7173     1.9751 </r>
       <r>   -14.3888     0.2359     1.9945 </r>
       <r>   -14.3063     0.0557     1.9991 </r>
       <r>   -14.2239     0.0094     1.9999 </r>
       <r>   -14.1414     0.0011     2.0000 </r>
       <r>   -14.0590     0.0001     2.0000 </r>
       <r>   -13.9765     0.0000     2.0000 </r>
       <r>   -13.8941     0.0000     2.0000 </r>
       <r>   -13.8116     0.0000     2.0000 </r>
       <r>   -13.7291     0.0000     2.0000 </r>
       <r>   -13.6467     0.0000     2.0000 </r>
       <r>   -13.5642     0.0000     2.0000 </r>
       <r>   -13.4818     0.0000     2.0000 </r>
       <r>   -13.3993     0.0000     2.0000 </r>
       <r>   -13.3169     0.0000     2.0000 </r>
       <r>   -13.2344     0.0000     2.0000 </r>
       <r>   -13.1520     0.0000     2.0000 </r>
       <r>   -13.0695     0.0000     2.0000 </r>
       <r>   -12.9870     0.0000     2.0000 </r>
       <r>   -12.9046     0.0000     2.0000 </r>
       <r>   -12.8221     0.0000     2.0000 </r>
       <r>   -12.7397     0.0000     2.0000 </r>
       <r>   -12.6572     0.0000     2.0000 </r>
       <r>   -12.5748     0.0000     2.0000 </r>
       <r>   -12.4923     0.0000     2.0000 </r>
       <r>   -12.4098     0.0000     2.0000 </r>
       <r>   -12.3274     0.0000     2.0000 </r>
       <r>   -12.2449     0.0000     2.0000 </r>
       <r>   -12.1625     0.0000     2.0000 </r>
       <r>   -12.0800     0.0000     2.0000 </r>
       <r>   -11.9976     0.0000     2.0000 </r>
       <r>   -11.9151     0.0000     2.0000 </r>
       <r>   -11.8326     0.0000     2.0000 </r>
       <r>   -11.7502     0.0000     2.0000 </r>
       <r>   -11.6677     0.0000     2.0000 </r>
       <r>   -11.5853     0.0000     2.0000 </r>
       <r>   -11.5028     0.0000     2.0000 </r>
       <r>   -11.4204     0.0000     2.0000 </r>
       <r>   -11.3379     0.0000     2.0000 </r>
       <r>   -11.2555     0.0000     2.0000 </r>
       <r>   -11.1730     0.0000     2.0000 </r>
       <r>   -11.0905     0.0000     2.0000 </r>
       <r>   -11.0081     0.0000     2.0000 </r>
       <r>   -10.9256     0.0000     2.0000 </r>
       <r>   -10.8432     0.0006     2.0001 </r>
       <r>   -10.7607     0.0059     2.0005 </r>
       <r>   -10.6783     0.0422     2.0040 </r>
       <r>   -10.5958     0.2158     2.0218 </r>
       <r>   -10.5133     0.7926     2.0872 </r>
       <r>   -10.4309     2.0904     2.2595 </r>
       <r>   -10.3484     3.9610     2.5861 </r>
       <r>   -10.2660     5.3927     3.0308 </r>
       <r>   -10.1835     5.2760     3.4658 </r>
       <r>   -10.1011     3.7092     3.7717 </r>
       <r>   -10.0186     1.8737     3.9262 </r>
       <r>    -9.9361     0.6799     3.9823 </r>
       <r>    -9.8537     0.1772     3.9969 </r>
       <r>    -9.7712     0.0331     3.9996 </r>
       <r>    -9.6888     0.0044     4.0000 </r>
       <r>    -9.6063     0.0004     4.0000 </r>
       <r>    -9.5239     0.0000     4.0000 </r>
       <r>    -9.4414     0.0000     4.0000 </r>
       <r>    -9.3590     0.0000     4.0000 </r>
       <r>    -9.2765     0.0001     4.0000 </r>
       <r>    -9.1940     0.0010     4.0001 </r>
       <r>    -9.1116     0.0087     4.0008 </r>
       <r>    -9.0291     0.0521     4.0051 </r>
       <r>    -8.9467     0.2238     4.0236 </r>
       <r>    -8.8642     0.6898     4.0804 </r>
       <r>    -8.7818     1.5274     4.2064 </r>
       <r>    -8.6993     2.4297     4.4067 </r>
       <r>    -8.6168     2.7773     4.6357 </r>
       <r>    -8.5344     2.2814     4.8239 </r>
       <r>    -8.4519     1.3470     4.9349 </r>
       <r>    -8.3695     0.5752     4.9824 </r>
       <r>    -8.2870     0.2053     4.9993 </r>
       <r>    -8.2046     0.2076     5.0164 </r>
       <r>    -8.1221     0.6629     5.0711 </r>
       <r>    -8.0396     1.8285     5.2218 </r>
       <r>    -7.9572     3.6534     5.5231 </r>
       <r>    -7.8747     5.2466     5.9557 </r>
       <r>    -7.7923     5.4145     6.4021 </r>
       <r>    -7.7098     4.0153     6.7332 </r>
       <r>    -7.6274     2.1396     6.9097 </r>
       <r>    -7.5449     0.8190     6.9772 </r>
       <r>    -7.4625     0.2252     6.9958 </r>
       <r>    -7.3800     0.0444     6.9994 </r>
       <r>    -7.2975     0.0063     6.9999 </r>
       <r>    -7.2151     0.0006     7.0000 </r>
       <r>    -7.1326     0.0000     7.0000 </r>
       <r>    -7.0502     0.0000     7.0000 </r>
       <r>    -6.9677     0.0000     7.0000 </r>
       <r>    -6.8853     0.0000     7.0000 </r>
       <r>    -6.8028     0.0000     7.0000 </r>
       <r>    -6.7203     0.0000     7.0000 </r>
       <r>    -6.6379     0.0000     7.0000 </r>
       <r>    -6.5554     0.0000     7.0000 </r>
       <r>    -6.4730     0.0000     7.0000 </r>
       <r>    -6.3905     0.0000     7.0000 </r>
       <r>    -6.3081     0.0000     7.0000 </r>
       <r>    -6.2256     0.0000     7.0000 </r>
       <r>    -6.1432     0.0000     7.0000 </r>
       <r>    -6.0607     0.0000     7.0000 </r>
       <r>    -5.9782     0.0000     7.0000 </r>
       <r>    -5.8958     0.0000     7.0000 </r>
       <r>    -5.8133     0.0000     7.0000 </r>
       <r>    -5.7309     0.0000     7.0000 </r>
       <r>    -5.6484     0.0000     7.0000 </r>
       <r>    -5.5660     0.0000     7.0000 </r>
       <r>    -5.4835     0.0000     7.0000 </r>
       <r>    -5.4010     0.0000     7.0000 </r>
       <r>    -5.3186     0.0000     7.0000 </r>
       <r>    -5.2361     0.0000     7.0000 </r>
       <r>    -5.1537     0.0000     7.0000 </r>
       <r>    -5.0712     0.0000     7.0000 </r>
       <r>    -4.9888     0.0000     7.0000 </r>
       <r>    -4.9063     0.0000     7.0000 </r>
       <r>    -4.8238     0.0000     7.0000 </r>
       <r>    -4.7414     0.0000     7.0000 </r>
       <r>    -4.6589     0.0000     7.0000 </r>
       <r>    -4.5765     0.0000     7.0000 </r>
       <r>    -4.4940     0.0000     7.0000 </r>
       <r>    -4.4116     0.0000     7.0000 </r>
       <r>    -4.3291     0.0000     7.0000 </r>
       <r>    -4.2467     0.0000     7.0000 </r>
       <r>    -4.1642     0.0000     7.0000 </r>
       <r>    -4.0817     0.0000     7.0000 </r>
       <r>    -3.9993     0.0000     7.0000 </r>
       <r>    -3.9168     0.0000     7.0000 </r>
       <r>    -3.8344     0.0000     7.0000 </r>
       <r>    -3.7519     0.0000     7.0000 </r>
       <r>    -3.6695     0.0000     7.0000 </r>
       <r>    -3.5870     0.0000     7.0000 </r>
       <r>    -3.5045     0.0000     7.0000 </r>
       <r>    -3.4221     0.0000     7.0000 </r>
       <r>    -3.3396     0.0000     7.0000 </r>
       <r>    -3.2572     0.0000     7.0000 </r>
       <r>    -3.1747     0.0000     7.0000 </r>
       <r>    -3.0923     0.0000     7.0000 </r>
       <r>    -3.0098     0.0000     7.0000 </r>
       <r>    -2.9273     0.0000     7.0000 </r>
       <r>    -2.8449     0.0000     7.0000 </r>
       <r>    -2.7624     0.0000     7.0000 </r>
       <r>    -2.6800     0.0000     7.0000 </r>
       <r>    -2.5975     0.0000     7.0000 </r>
       <r>    -2.5151     0.0000     7.0000 </r>
       <r>    -2.4326     0.0000     7.0000 </r>
       <r>    -2.3502     0.0000     7.0000 </r>
       <r>    -2.2677     0.0000     7.0000 </r>
       <r>    -2.1852     0.0000     7.0000 </r>
       <r>    -2.1028     0.0000     7.0000 </r>
       <r>    -2.0203     0.0000     7.0000 </r>
       <r>    -1.9379     0.0000     7.0000 </r>
       <r>    -1.8554     0.0000     7.0000 </r>
       <r>    -1.7730     0.0000     7.0000 </r>
       <r>    -1.6905     0.0000     7.0000 </r>
       <r>    -1.6080     0.0000     7.0000 </r>
       <r>    -1.5256     0.0000     7.0000 </r>
       <r>    -1.4431     0.0000     7.0000 </r>
       <r>    -1.3607     0.0000     7.0000 </r>
       <r>    -1.2782     0.0000     7.0000 </r>
       <r>    -1.1958     0.0000     7.0000 </r>
       <r>    -1.1133     0.0001     7.0000 </r>
       <r>    -1.0308     0.0010     7.0001 </r>
       <r>    -0.9484     0.0085     7.0008 </r>
       <r>    -0.8659     0.0509     7.0050 </r>
       <r>    -0.7835     0.2196     7.0231 </r>
       <r>    -0.7010     0.6803     7.0792 </r>
       <r>    -0.6186     1.5134     7.2040 </r>
       <r>    -0.5361     2.4191     7.4035 </r>
       <r>    -0.4537     2.7785     7.6326 </r>
       <r>    -0.3712     2.2933     7.8217 </r>
       <r>    -0.2887     1.3601     7.9338 </r>
       <r>    -0.2063     0.5795     7.9816 </r>
       <r>    -0.1238     0.1774     7.9962 </r>
       <r>    -0.0414     0.0390     7.9994 </r>
       <r>     0.0411     0.0062     7.9999 </r>
       <r>     0.1235     0.0012     8.0000 </r>
       <r>     0.2060     0.0047     8.0004 </r>
       <r>     0.2885     0.0311     8.0030 </r>
       <r>     0.3709     0.1498     8.0153 </r>
       <r>     0.4534     0.5257     8.0587 </r>
       <r>     0.5358     1.3699     8.1716 </r>
       <r>     0.6183     2.7517     8.3985 </r>
       <r>     0.7007     4.5355     8.7725 </r>
       <r>     0.7832     6.5755     9.3147 </r>
       <r>     0.8657     8.6424    10.0274 </r>
       <r>     0.9481    10.0587    10.8568 </r>
       <r>     1.0306    10.0246    11.6833 </r>
       <r>     1.1130     8.5417    12.3877 </r>
       <r>     1.1955     6.5477    12.9276 </r>
       <r>     1.2779     4.9126    13.3326 </r>
       <r>     1.3604     3.6589    13.6343 </r>
       <r>     1.4428     2.4542    13.8367 </r>
       <r>     1.5253     1.3911    13.9514 </r>
       <r>     1.6078     0.8749    14.0235 </r>
       <r>     1.6902     1.1224    14.1161 </r>
       <r>     1.7727     1.9280    14.2751 </r>
       <r>     1.8551     2.6640    14.4947 </r>
       <r>     1.9376     2.6836    14.7160 </r>
       <r>     2.0200     1.9688    14.8784 </r>
       <r>     2.1025     1.1504    14.9732 </r>
       <r>     2.1850     0.8652    15.0446 </r>
       <r>     2.2674     1.3108    15.1527 </r>
       <r>     2.3499     2.1727    15.3318 </r>
       <r>     2.4323     2.7568    15.5591 </r>
       <r>     2.5148     2.5316    15.7679 </r>
       <r>     2.5972     1.6719    15.9057 </r>
       <r>     2.6797     0.7934    15.9712 </r>
       <r>     2.7622     0.2704    15.9934 </r>
       <r>     2.8446     0.0662    15.9989 </r>
       <r>     2.9271     0.0116    15.9999 </r>
       <r>     3.0095     0.0015    16.0000 </r>
       <r>     3.0920     0.0001    16.0000 </r>
       <r>     3.1744     0.0000    16.0000 </r>
       <r>     3.2569     0.0000    16.0000 </r>
       <r>     3.3393     0.0000    16.0000 </r>
       <r>     3.4218     0.0000    16.0000 </r>
       <r>     3.5043     0.0000    16.0000 </r>
       <r>     3.5867     0.0000    16.0000 </r>
       <r>     3.6692     0.0000    16.0000 </r>
       <r>     3.7516     0.0000    16.0000 </r>
       <r>     3.8341     0.0000    16.0000 </r>
       <r>     3.9165     0.0000    16.0000 </r>
       <r>     3.9990     0.0000    16.0000 </r>
       <r>     4.0815     0.0000    16.0000 </r>
       <r>     4.1639     0.0000    16.0000 </r>
       <r>     4.2464     0.0000    16.0000 </r>
       <r>     4.3288     0.0000    16.0000 </r>
       <r>     4.4113     0.0000    16.0000 </r>
      </set>
     </set>
    </array>
   </total>
  </dos>
 </calculation>
 <structure name="finalpos" >
  <crystal>
   <varray name="basis" >
    <v>      10.00000000       0.00000000       0.00000000 </v>
    <v>       0.00000000      10.00000000       0.00000000 </v>
    <v>       0.00000000       0.00000000      10.00000000 </v>
   </varray>
   <i name="volume">   1000.00000000 </i>
   <varray name="rec_basis" >
    <v>       0.10000000       0.00000000       0.00000000 </v>
    <v>       0.00000000       0.10000000       0.00000000 </v>
    <v>       0.00000000       0.00000000       0.10000000 </v>
   </varray>
  </crystal>
  <varray name="positions" >
   <v>       0.50000000       0.60276368       0.61620124 </v>
   <v>       0.41100750       0.44861817       0.61619830 </v>
   <v>       0.58899250       0.44861817       0.61619830 </v>
   <v>       0.50000000       0.39723632       0.38379876 </v>
   <v>       0.41100750       0.55138183       0.38380170 </v>
   <v>       0.58899250       0.55138183       0.38380170 </v>
   <v>       0.50000000       0.50000172       0.57622043 </v>
   <v>       0.50000000       0.49999828       0.42377957 </v>
  </varray>
 </structure>
</modeling>
