   3   3   0   0
  0.3333333E+03  0.1000000E-08  0.1000000E-08  0.1000000E-08  0.5000000E-15
  1.000000000000000E-004
  CAR 
 unknown system                          
      2.72714146    -27.26124837  301     -6.16902371      1.00000000
    -27.261  0.0000E+00  0.0000E+00  0.0000E+00  0.0000E+00
    -27.161  0.0000E+00  0.0000E+00  0.0000E+00  0.0000E+00
    -27.061  0.0000E+00  0.0000E+00  0.0000E+00  0.0000E+00
    -26.961  0.0000E+00  0.0000E+00  0.0000E+00  0.0000E+00
    -26.861  0.0000E+00  0.0000E+00  0.0000E+00  0.0000E+00
    -26.761  0.0000E+00  0.0000E+00  0.0000E+00  0.0000E+00
    -26.661  0.0000E+00  0.0000E+00  0.0000E+00  0.0000E+00
    -26.562  0.0000E+00  0.0000E+00  0.0000E+00  0.0000E+00
    -26.462  0.0000E+00  0.0000E+00  0.0000E+00  0.0000E+00
    -26.362  0.3610E-14  0.3610E-14  0.3608E-15  0.3608E-15
    -26.262  0.7500E-12  0.7504E-12  0.7533E-13  0.7537E-13
    -26.162  0.9564E-10  0.9568E-10  0.9636E-11  0.9640E-11
    -26.062  0.7466E-08  0.7469E-08  0.7560E-09  0.7563E-09
    -25.962  0.3573E-06  0.3574E-06  0.3647E-07  0.3648E-07
    -25.862  0.1049E-04  0.1050E-04  0.1085E-05  0.1086E-05
    -25.762  0.1895E-03  0.1896E-03  0.2003E-04  0.2003E-04
    -25.662  0.2107E-02  0.2108E-02  0.2307E-03  0.2307E-03
    -25.562  0.1445E-01  0.1445E-01  0.1675E-02  0.1675E-02
    -25.462  0.6119E-01  0.6120E-01  0.7792E-02  0.7793E-02
    -25.362  0.1603E+00  0.1603E+00  0.2381E-01  0.2381E-01
    -25.262  0.2598E+00  0.2598E+00  0.4978E-01  0.4978E-01
    -25.162  0.2608E+00  0.2607E+00  0.7584E-01  0.7585E-01
    -25.062  0.1621E+00  0.1621E+00  0.9205E-01  0.9205E-01
    -24.962  0.6235E-01  0.6235E-01  0.9828E-01  0.9828E-01
    -24.862  0.1483E-01  0.1483E-01  0.9976E-01  0.9976E-01
    -24.762  0.2180E-02  0.2179E-02  0.9998E-01  0.9998E-01
    -24.662  0.1975E-03  0.1975E-03  0.1000E+00  0.1000E+00
    -24.562  0.1102E-04  0.1102E-04  0.1000E+00  0.1000E+00
    -24.462  0.3781E-06  0.3780E-06  0.1000E+00  0.1000E+00
    -24.362  0.7963E-08  0.7960E-08  0.1000E+00  0.1000E+00
    -24.262  0.1028E-09  0.1027E-09  0.1000E+00  0.1000E+00
    -24.162  0.8123E-12  0.8119E-12  0.1000E+00  0.1000E+00
    -24.062  0.3998E-14  0.3998E-14  0.1000E+00  0.1000E+00
    -23.963  0.0000E+00  0.0000E+00  0.1000E+00  0.1000E+00
    -23.863  0.0000E+00  0.0000E+00  0.1000E+00  0.1000E+00
    -23.763  0.0000E+00  0.0000E+00  0.1000E+00  0.1000E+00
    -23.663  0.0000E+00  0.0000E+00  0.1000E+00  0.1000E+00
    -23.563  0.0000E+00  0.0000E+00  0.1000E+00  0.1000E+00
    -23.463  0.0000E+00  0.0000E+00  0.1000E+00  0.1000E+00
    -23.363  0.0000E+00  0.0000E+00  0.1000E+00  0.1000E+00
    -23.263  0.0000E+00  0.0000E+00  0.1000E+00  0.1000E+00
    -23.163  0.0000E+00  0.0000E+00  0.1000E+00  0.1000E+00
    -23.063  0.0000E+00  0.0000E+00  0.1000E+00  0.1000E+00
    -22.963  0.0000E+00  0.0000E+00  0.1000E+00  0.1000E+00
    -22.863  0.0000E+00  0.0000E+00  0.1000E+00  0.1000E+00
    -22.763  0.0000E+00  0.0000E+00  0.1000E+00  0.1000E+00
    -22.663  0.0000E+00  0.0000E+00  0.1000E+00  0.1000E+00
    -22.563  0.0000E+00  0.0000E+00  0.1000E+00  0.1000E+00
    -22.463  0.0000E+00  0.0000E+00  0.1000E+00  0.1000E+00
    -22.363  0.0000E+00  0.0000E+00  0.1000E+00  0.1000E+00
    -22.263  0.0000E+00  0.0000E+00  0.1000E+00  0.1000E+00
    -22.163  0.0000E+00  0.0000E+00  0.1000E+00  0.1000E+00
    -22.063  0.0000E+00  0.0000E+00  0.1000E+00  0.1000E+00
    -21.963  0.0000E+00  0.0000E+00  0.1000E+00  0.1000E+00
    -21.863  0.0000E+00  0.0000E+00  0.1000E+00  0.1000E+00
    -21.763  0.0000E+00  0.0000E+00  0.1000E+00  0.1000E+00
    -21.663  0.0000E+00  0.0000E+00  0.1000E+00  0.1000E+00
    -21.563  0.0000E+00  0.0000E+00  0.1000E+00  0.1000E+00
    -21.463  0.0000E+00  0.0000E+00  0.1000E+00  0.1000E+00
    -21.364  0.0000E+00  0.0000E+00  0.1000E+00  0.1000E+00
    -21.264  0.0000E+00  0.0000E+00  0.1000E+00  0.1000E+00
    -21.164  0.0000E+00  0.0000E+00  0.1000E+00  0.1000E+00
    -21.064  0.0000E+00  0.0000E+00  0.1000E+00  0.1000E+00
    -20.964  0.0000E+00  0.0000E+00  0.1000E+00  0.1000E+00
    -20.864  0.0000E+00  0.0000E+00  0.1000E+00  0.1000E+00
    -20.764  0.0000E+00  0.0000E+00  0.1000E+00  0.1000E+00
    -20.664  0.0000E+00  0.0000E+00  0.1000E+00  0.1000E+00
    -20.564  0.0000E+00  0.0000E+00  0.1000E+00  0.1000E+00
    -20.464  0.0000E+00  0.0000E+00  0.1000E+00  0.1000E+00
    -20.364  0.0000E+00  0.0000E+00  0.1000E+00  0.1000E+00
    -20.264  0.0000E+00  0.0000E+00  0.1000E+00  0.1000E+00
    -20.164  0.0000E+00  0.0000E+00  0.1000E+00  0.1000E+00
    -20.064  0.0000E+00  0.0000E+00  0.1000E+00  0.1000E+00
    -19.964  0.0000E+00  0.0000E+00  0.1000E+00  0.1000E+00
    -19.864  0.0000E+00  0.0000E+00  0.1000E+00  0.1000E+00
    -19.764  0.0000E+00  0.0000E+00  0.1000E+00  0.1000E+00
    -19.664  0.0000E+00  0.0000E+00  0.1000E+00  0.1000E+00
    -19.564  0.0000E+00  0.0000E+00  0.1000E+00  0.1000E+00
    -19.464  0.0000E+00  0.0000E+00  0.1000E+00  0.1000E+00
    -19.364  0.0000E+00  0.0000E+00  0.1000E+00  0.1000E+00
    -19.264  0.0000E+00  0.0000E+00  0.1000E+00  0.1000E+00
    -19.164  0.0000E+00  0.0000E+00  0.1000E+00  0.1000E+00
    -19.064  0.0000E+00  0.0000E+00  0.1000E+00  0.1000E+00
    -18.964  0.0000E+00  0.0000E+00  0.1000E+00  0.1000E+00
    -18.864  0.0000E+00  0.0000E+00  0.1000E+00  0.1000E+00
    -18.765  0.0000E+00  0.0000E+00  0.1000E+00  0.1000E+00
    -18.665  0.0000E+00  0.0000E+00  0.1000E+00  0.1000E+00
    -18.565  0.0000E+00  0.0000E+00  0.1000E+00  0.1000E+00
    -18.465  0.0000E+00  0.0000E+00  0.1000E+00  0.1000E+00
    -18.365  0.0000E+00  0.0000E+00  0.1000E+00  0.1000E+00
    -18.265  0.0000E+00  0.0000E+00  0.1000E+00  0.1000E+00
    -18.165  0.0000E+00  0.0000E+00  0.1000E+00  0.1000E+00
    -18.065  0.0000E+00  0.0000E+00  0.1000E+00  0.1000E+00
    -17.965  0.0000E+00  0.0000E+00  0.1000E+00  0.1000E+00
    -17.865  0.0000E+00  0.0000E+00  0.1000E+00  0.1000E+00
    -17.765  0.0000E+00  0.0000E+00  0.1000E+00  0.1000E+00
    -17.665  0.0000E+00  0.0000E+00  0.1000E+00  0.1000E+00
    -17.565  0.0000E+00  0.0000E+00  0.1000E+00  0.1000E+00
    -17.465  0.0000E+00  0.0000E+00  0.1000E+00  0.1000E+00
    -17.365  0.0000E+00  0.0000E+00  0.1000E+00  0.1000E+00
    -17.265  0.0000E+00  0.0000E+00  0.1000E+00  0.1000E+00
    -17.165  0.0000E+00  0.0000E+00  0.1000E+00  0.1000E+00
    -17.065  0.0000E+00  0.0000E+00  0.1000E+00  0.1000E+00
    -16.965  0.0000E+00  0.0000E+00  0.1000E+00  0.1000E+00
    -16.865  0.0000E+00  0.0000E+00  0.1000E+00  0.1000E+00
    -16.765  0.0000E+00  0.0000E+00  0.1000E+00  0.1000E+00
    -16.665  0.0000E+00  0.0000E+00  0.1000E+00  0.1000E+00
    -16.565  0.0000E+00  0.0000E+00  0.1000E+00  0.1000E+00
    -16.465  0.0000E+00  0.0000E+00  0.1000E+00  0.1000E+00
    -16.365  0.0000E+00  0.0000E+00  0.1000E+00  0.1000E+00
    -16.266  0.0000E+00  0.0000E+00  0.1000E+00  0.1000E+00
    -16.166  0.0000E+00  0.0000E+00  0.1000E+00  0.1000E+00
    -16.066  0.0000E+00  0.0000E+00  0.1000E+00  0.1000E+00
    -15.966  0.0000E+00  0.0000E+00  0.1000E+00  0.1000E+00
    -15.866  0.0000E+00  0.0000E+00  0.1000E+00  0.1000E+00
    -15.766  0.0000E+00  0.0000E+00  0.1000E+00  0.1000E+00
    -15.666  0.0000E+00  0.0000E+00  0.1000E+00  0.1000E+00
    -15.566  0.0000E+00  0.0000E+00  0.1000E+00  0.1000E+00
    -15.466  0.0000E+00  0.0000E+00  0.1000E+00  0.1000E+00
    -15.366  0.0000E+00  0.0000E+00  0.1000E+00  0.1000E+00
    -15.266  0.0000E+00  0.0000E+00  0.1000E+00  0.1000E+00
    -15.166  0.0000E+00  0.0000E+00  0.1000E+00  0.1000E+00
    -15.066  0.0000E+00  0.0000E+00  0.1000E+00  0.1000E+00
    -14.966  0.0000E+00  0.0000E+00  0.1000E+00  0.1000E+00
    -14.866  0.0000E+00  0.0000E+00  0.1000E+00  0.1000E+00
    -14.766  0.0000E+00  0.0000E+00  0.1000E+00  0.1000E+00
    -14.666  0.0000E+00  0.0000E+00  0.1000E+00  0.1000E+00
    -14.566  0.0000E+00  0.0000E+00  0.1000E+00  0.1000E+00
    -14.466  0.0000E+00  0.0000E+00  0.1000E+00  0.1000E+00
    -14.366  0.0000E+00  0.0000E+00  0.1000E+00  0.1000E+00
    -14.266  0.0000E+00  0.0000E+00  0.1000E+00  0.1000E+00
    -14.166  0.5553E-16  0.5553E-16  0.1000E+00  0.1000E+00
    -14.066  0.1422E-13  0.1422E-13  0.1000E+00  0.1000E+00
    -13.966  0.2624E-11  0.2622E-11  0.1000E+00  0.1000E+00
    -13.866  0.2961E-09  0.2959E-09  0.1000E+00  0.1000E+00
    -13.766  0.2046E-07  0.2045E-07  0.1000E+00  0.1000E+00
    -13.667  0.8670E-06  0.8666E-06  0.1000E+00  0.1000E+00
    -13.567  0.2256E-04  0.2255E-04  0.1000E+00  0.1000E+00
    -13.467  0.3610E-03  0.3609E-03  0.1000E+00  0.1000E+00
    -13.367  0.3559E-02  0.3558E-02  0.1004E+00  0.1004E+00
    -13.267  0.2164E-01  0.2164E-01  0.1026E+00  0.1026E+00
    -13.167  0.8132E-01  0.8131E-01  0.1107E+00  0.1107E+00
    -13.067  0.1890E+00  0.1890E+00  0.1296E+00  0.1296E+00
    -12.967  0.2719E+00  0.2719E+00  0.1568E+00  0.1568E+00
    -12.867  0.2423E+00  0.2423E+00  0.1810E+00  0.1810E+00
    -12.767  0.1337E+00  0.1337E+00  0.1943E+00  0.1943E+00
    -12.667  0.4563E-01  0.4564E-01  0.1989E+00  0.1989E+00
    -12.567  0.9630E-02  0.9632E-02  0.1999E+00  0.1999E+00
    -12.467  0.1255E-02  0.1255E-02  0.2000E+00  0.2000E+00
    -12.367  0.1008E-03  0.1008E-03  0.2000E+00  0.2000E+00
    -12.267  0.4985E-05  0.4987E-05  0.2000E+00  0.2000E+00
    -12.167  0.1515E-06  0.1515E-06  0.2000E+00  0.2000E+00
    -12.067  0.2824E-08  0.2826E-08  0.2000E+00  0.2000E+00
    -11.967  0.3227E-10  0.3229E-10  0.2000E+00  0.2000E+00
    -11.867  0.2258E-12  0.2259E-12  0.2000E+00  0.2000E+00
    -11.767  0.8885E-15  0.8885E-15  0.2000E+00  0.2000E+00
    -11.667  0.0000E+00  0.0000E+00  0.2000E+00  0.2000E+00
    -11.567  0.0000E+00  0.0000E+00  0.2000E+00  0.2000E+00
    -11.467  0.0000E+00  0.0000E+00  0.2000E+00  0.2000E+00
    -11.367  0.0000E+00  0.0000E+00  0.2000E+00  0.2000E+00
    -11.267  0.0000E+00  0.0000E+00  0.2000E+00  0.2000E+00
    -11.167  0.0000E+00  0.0000E+00  0.2000E+00  0.2000E+00
    -11.068  0.0000E+00  0.0000E+00  0.2000E+00  0.2000E+00
    -10.968  0.0000E+00  0.0000E+00  0.2000E+00  0.2000E+00
    -10.868  0.0000E+00  0.0000E+00  0.2000E+00  0.2000E+00
    -10.768  0.0000E+00  0.0000E+00  0.2000E+00  0.2000E+00
    -10.668  0.0000E+00  0.0000E+00  0.2000E+00  0.2000E+00
    -10.568  0.0000E+00  0.0000E+00  0.2000E+00  0.2000E+00
    -10.468  0.0000E+00  0.0000E+00  0.2000E+00  0.2000E+00
    -10.368  0.4443E-15  0.4443E-15  0.2000E+00  0.2000E+00
    -10.268  0.1120E-12  0.1118E-12  0.2000E+00  0.2000E+00
    -10.168  0.1710E-10  0.1708E-10  0.2000E+00  0.2000E+00
    -10.068  0.1598E-08  0.1596E-08  0.2000E+00  0.2000E+00
     -9.968  0.9148E-07  0.9139E-07  0.2000E+00  0.2000E+00
     -9.868  0.3213E-05  0.3211E-05  0.2000E+00  0.2000E+00
     -9.768  0.6935E-04  0.6930E-04  0.2000E+00  0.2000E+00
     -9.668  0.9211E-03  0.9205E-03  0.2001E+00  0.2001E+00
     -9.568  0.7541E-02  0.7537E-02  0.2009E+00  0.2009E+00
     -9.468  0.3810E-01  0.3809E-01  0.2047E+00  0.2047E+00
     -9.368  0.1190E+00  0.1190E+00  0.2166E+00  0.2166E+00
     -9.268  0.2300E+00  0.2300E+00  0.2396E+00  0.2395E+00
     -9.168  0.2753E+00  0.2753E+00  0.2671E+00  0.2671E+00
     -9.068  0.2040E+00  0.2040E+00  0.2875E+00  0.2875E+00
     -8.968  0.9360E-01  0.9363E-01  0.2968E+00  0.2968E+00
     -8.868  0.2657E-01  0.2658E-01  0.2995E+00  0.2995E+00
     -8.768  0.4659E-02  0.4662E-02  0.2999E+00  0.2999E+00
     -8.668  0.5043E-03  0.5046E-03  0.3000E+00  0.3000E+00
     -8.568  0.3362E-04  0.3365E-04  0.3000E+00  0.3000E+00
     -8.469  0.1379E-05  0.1380E-05  0.3000E+00  0.3000E+00
     -8.369  0.3474E-07  0.3478E-07  0.3000E+00  0.3000E+00
     -8.269  0.5368E-09  0.5374E-09  0.3000E+00  0.3000E+00
     -8.169  0.5217E-11  0.5224E-11  0.3000E+00  0.3000E+00
     -8.069  0.2069E-10  0.2072E-10  0.3000E+00  0.3000E+00
     -7.969  0.1894E-08  0.1896E-08  0.3000E+00  0.3000E+00
     -7.869  0.1063E-06  0.1064E-06  0.3000E+00  0.3000E+00
     -7.769  0.3663E-05  0.3667E-05  0.3000E+00  0.3000E+00
     -7.669  0.7756E-04  0.7762E-04  0.3000E+00  0.3000E+00
     -7.569  0.1010E-02  0.1011E-02  0.3001E+00  0.3001E+00
     -7.469  0.8115E-02  0.8119E-02  0.3009E+00  0.3009E+00
     -7.369  0.4023E-01  0.4025E-01  0.3049E+00  0.3049E+00
     -7.269  0.1233E+00  0.1233E+00  0.3173E+00  0.3173E+00
     -7.169  0.2338E+00  0.2338E+00  0.3406E+00  0.3406E+00
     -7.069  0.2745E+00  0.2745E+00  0.3681E+00  0.3681E+00
     -6.969  0.1996E+00  0.1996E+00  0.3880E+00  0.3880E+00
     -6.869  0.8986E-01  0.8983E-01  0.3970E+00  0.3970E+00
     -6.769  0.2502E-01  0.2501E-01  0.3995E+00  0.3995E+00
     -6.669  0.4305E-02  0.4303E-02  0.4000E+00  0.4000E+00
     -6.569  0.4571E-03  0.4568E-03  0.4000E+00  0.4000E+00
     -6.469  0.2990E-04  0.2987E-04  0.4000E+00  0.4000E+00
     -6.369  0.1203E-05  0.1202E-05  0.4000E+00  0.4000E+00
     -6.269  0.2972E-07  0.2969E-07  0.4000E+00  0.4000E+00
     -6.169  0.4503E-09  0.4498E-09  0.4000E+00  0.4000E+00
     -6.069  0.4179E-11  0.4174E-11  0.4000E+00  0.4000E+00
     -5.969  0.2377E-13  0.2377E-13  0.4000E+00  0.4000E+00
     -5.870  0.0000E+00  0.0000E+00  0.4000E+00  0.4000E+00
     -5.770  0.0000E+00  0.0000E+00  0.4000E+00  0.4000E+00
     -5.670  0.0000E+00  0.0000E+00  0.4000E+00  0.4000E+00
     -5.570  0.0000E+00  0.0000E+00  0.4000E+00  0.4000E+00
     -5.470  0.0000E+00  0.0000E+00  0.4000E+00  0.4000E+00
     -5.370  0.0000E+00  0.0000E+00  0.4000E+00  0.4000E+00
     -5.270  0.0000E+00  0.0000E+00  0.4000E+00  0.4000E+00
     -5.170  0.0000E+00  0.0000E+00  0.4000E+00  0.4000E+00
     -5.070  0.0000E+00  0.0000E+00  0.4000E+00  0.4000E+00
     -4.970  0.0000E+00  0.0000E+00  0.4000E+00  0.4000E+00
     -4.870  0.0000E+00  0.0000E+00  0.4000E+00  0.4000E+00
     -4.770  0.0000E+00  0.0000E+00  0.4000E+00  0.4000E+00
     -4.670  0.0000E+00  0.0000E+00  0.4000E+00  0.4000E+00
     -4.570  0.0000E+00  0.0000E+00  0.4000E+00  0.4000E+00
     -4.470  0.0000E+00  0.0000E+00  0.4000E+00  0.4000E+00
     -4.370  0.0000E+00  0.0000E+00  0.4000E+00  0.4000E+00
     -4.270  0.0000E+00  0.0000E+00  0.4000E+00  0.4000E+00
     -4.170  0.0000E+00  0.0000E+00  0.4000E+00  0.4000E+00
     -4.070  0.0000E+00  0.0000E+00  0.4000E+00  0.4000E+00
     -3.970  0.0000E+00  0.0000E+00  0.4000E+00  0.4000E+00
     -3.870  0.0000E+00  0.0000E+00  0.4000E+00  0.4000E+00
     -3.770  0.0000E+00  0.0000E+00  0.4000E+00  0.4000E+00
     -3.670  0.0000E+00  0.0000E+00  0.4000E+00  0.4000E+00
     -3.570  0.0000E+00  0.0000E+00  0.4000E+00  0.4000E+00
     -3.470  0.0000E+00  0.0000E+00  0.4000E+00  0.4000E+00
     -3.370  0.0000E+00  0.0000E+00  0.4000E+00  0.4000E+00
     -3.271  0.0000E+00  0.0000E+00  0.4000E+00  0.4000E+00
     -3.171  0.0000E+00  0.0000E+00  0.4000E+00  0.4000E+00
     -3.071  0.0000E+00  0.0000E+00  0.4000E+00  0.4000E+00
     -2.971  0.0000E+00  0.0000E+00  0.4000E+00  0.4000E+00
     -2.871  0.0000E+00  0.0000E+00  0.4000E+00  0.4000E+00
     -2.771  0.0000E+00  0.0000E+00  0.4000E+00  0.4000E+00
     -2.671  0.0000E+00  0.0000E+00  0.4000E+00  0.4000E+00
     -2.571  0.0000E+00  0.0000E+00  0.4000E+00  0.4000E+00
     -2.471  0.0000E+00  0.0000E+00  0.4000E+00  0.4000E+00
     -2.371  0.0000E+00  0.0000E+00  0.4000E+00  0.4000E+00
     -2.271  0.0000E+00  0.0000E+00  0.4000E+00  0.4000E+00
     -2.171  0.5553E-16  0.5553E-16  0.4000E+00  0.4000E+00
     -2.071  0.1849E-13  0.1877E-13  0.4000E+00  0.4000E+00
     -1.971  0.3331E-11  0.3377E-11  0.4000E+00  0.4000E+00
     -1.871  0.3672E-09  0.3717E-09  0.4000E+00  0.4000E+00
     -1.771  0.2478E-07  0.2505E-07  0.4000E+00  0.4000E+00
     -1.671  0.1026E-05  0.1035E-05  0.4000E+00  0.4000E+00
     -1.571  0.2607E-04  0.2629E-04  0.4000E+00  0.4000E+00
     -1.471  0.4076E-03  0.4104E-03  0.4000E+00  0.4000E+00
     -1.371  0.3925E-02  0.3947E-02  0.4004E+00  0.4004E+00
     -1.271  0.2332E-01  0.2342E-01  0.4028E+00  0.4028E+00
     -1.171  0.8563E-01  0.8588E-01  0.4113E+00  0.4114E+00
     -1.071  0.1945E+00  0.1948E+00  0.4308E+00  0.4308E+00
     -0.971  0.2734E+00  0.2735E+00  0.4581E+00  0.4582E+00
     -0.871  0.2380E+00  0.2378E+00  0.4819E+00  0.4819E+00
     -0.772  0.1283E+00  0.1280E+00  0.4947E+00  0.4947E+00
     -0.672  0.4280E-01  0.4265E-01  0.4990E+00  0.4990E+00
     -0.572  0.8827E-02  0.8783E-02  0.4999E+00  0.4999E+00
     -0.472  0.1124E-02  0.1117E-02  0.5000E+00  0.5000E+00
     -0.372  0.8820E-04  0.8753E-04  0.5000E+00  0.5000E+00
     -0.272  0.4284E-05  0.4245E-05  0.5000E+00  0.5000E+00
     -0.172  0.1137E-05  0.1092E-05  0.5000E+00  0.5000E+00
     -0.072  0.2575E-04  0.2478E-04  0.5000E+00  0.5000E+00
      0.028  0.4036E-03  0.3908E-03  0.5000E+00  0.5000E+00
      0.128  0.3903E-02  0.3803E-02  0.5004E+00  0.5004E+00
      0.228  0.2337E-01  0.2291E-01  0.5028E+00  0.5027E+00
      0.328  0.8743E-01  0.8627E-01  0.5115E+00  0.5113E+00
      0.428  0.2088E+00  0.2074E+00  0.5324E+00  0.5321E+00
      0.528  0.3357E+00  0.3353E+00  0.5659E+00  0.5656E+00
      0.628  0.4006E+00  0.4016E+00  0.6060E+00  0.6057E+00
      0.728  0.3896E+00  0.3910E+00  0.6449E+00  0.6448E+00
      0.828  0.3028E+00  0.3036E+00  0.6752E+00  0.6751E+00
      0.928  0.1691E+00  0.1694E+00  0.6921E+00  0.6921E+00
      1.028  0.6228E-01  0.6237E-01  0.6983E+00  0.6983E+00
      1.128  0.1452E-01  0.1454E-01  0.6998E+00  0.6998E+00
      1.228  0.2109E-02  0.2112E-02  0.7000E+00  0.7000E+00
      1.328  0.1893E-03  0.1897E-03  0.7000E+00  0.7000E+00
      1.428  0.1048E-04  0.1050E-04  0.7000E+00  0.7000E+00
      1.528  0.3565E-06  0.3574E-06  0.7000E+00  0.7000E+00
      1.628  0.7448E-08  0.7469E-08  0.7000E+00  0.7000E+00
      1.728  0.9538E-10  0.9568E-10  0.7000E+00  0.7000E+00
      1.827  0.7478E-12  0.7505E-12  0.7000E+00  0.7000E+00
      1.927  0.3554E-14  0.3554E-14  0.7000E+00  0.7000E+00
      2.027  0.0000E+00  0.0000E+00  0.7000E+00  0.7000E+00
      2.127  0.0000E+00  0.0000E+00  0.7000E+00  0.7000E+00
      2.227  0.0000E+00  0.0000E+00  0.7000E+00  0.7000E+00
      2.327  0.0000E+00  0.0000E+00  0.7000E+00  0.7000E+00
      2.427  0.0000E+00  0.0000E+00  0.7000E+00  0.7000E+00
      2.527  0.0000E+00  0.0000E+00  0.7000E+00  0.7000E+00
      2.627  0.0000E+00  0.0000E+00  0.7000E+00  0.7000E+00
      2.727  0.0000E+00  0.0000E+00  0.7000E+00  0.7000E+00
