    3    3   10    2
  0.3333333E+03  0.1000000E-08  0.1000000E-08  0.1000000E-08  0.5000000E-15
  1.000000000000000E-004
  CAR 
 unknown system                          
    8    1    7
 
  0.0000000E+00  0.0000000E+00  0.0000000E+00  0.1000000E+01
   1      -25.261239    -25.261248
   2      -12.990870    -12.990858
   3       -9.230756     -9.230730
   4       -7.135534     -7.135563
   5       -1.000328     -1.000601
   6        0.499517      0.500801
   7        0.727073      0.727141
