 running on    1 nodes
 distr:  one band on    1 nodes,    1 groups
 vasp.5.2.12 11Nov11 complex                                                    
  
 POSCAR found :  2 types and       3 ions
 LDA part: xc-table for Pade appr. of Perdew
 POSCAR, INCAR and KPOINTS ok, starting setup
 WARNING: small aliasing (wrap around) errors must be expected
 FFT: planning ...(           1 )
 WAVECAR not read
 entering main loop
       N       E                     dE             d eps       ncg     rms          rms(c)
DAV:   1     0.470076630624E+02    0.47008E+02   -0.17984E+03    49   0.369E+02
DAV:   2    -0.720311973330E+01   -0.54211E+02   -0.53529E+02    56   0.124E+02
DAV:   3    -0.126970398606E+02   -0.54939E+01   -0.54939E+01    28   0.481E+01
DAV:   4    -0.127912937278E+02   -0.94254E-01   -0.94254E-01    56   0.710E+00
DAV:   5    -0.127913144265E+02   -0.20699E-04   -0.20699E-04    42   0.842E-02    0.135E+01
DAV:   6    -0.455077899385E+01    0.82405E+01   -0.21790E+01    28   0.398E+01    0.460E+00
DAV:   7    -0.113571734215E+02   -0.68064E+01   -0.52494E+00    28   0.149E+01    0.291E+00
DAV:   8    -0.123320978674E+02   -0.97492E+00   -0.32894E-01    35   0.537E+00    0.154E+00
DAV:   9    -0.140759277333E+02   -0.17438E+01   -0.73823E-01    35   0.532E+00    0.306E-01
DAV:  10    -0.141637459473E+02   -0.87818E-01   -0.14577E-02    35   0.922E-01    0.142E-01
DAV:  11    -0.141834579053E+02   -0.19712E-01   -0.80552E-03    35   0.644E-01    0.117E-01
DAV:  12    -0.141851869801E+02   -0.17291E-02   -0.17432E-03    42   0.358E-01    0.710E-02
DAV:  13    -0.142035496136E+02   -0.18363E-01   -0.28429E-03    28   0.453E-01    0.716E-02
DAV:  14    -0.142064641516E+02   -0.29145E-02   -0.85565E-04    35   0.209E-01    0.304E-02
DAV:  15    -0.142090317813E+02   -0.25676E-02   -0.89016E-04    28   0.194E-01    0.332E-02
DAV:  16    -0.142111572800E+02   -0.21255E-02   -0.20324E-04    28   0.111E-01    0.138E-02
DAV:  17    -0.142118107887E+02   -0.65351E-03   -0.68332E-05    28   0.647E-02    0.694E-03
DAV:  18    -0.142122393218E+02   -0.42853E-03   -0.37906E-05    42   0.404E-02    0.383E-03
DAV:  19    -0.142124788124E+02   -0.23949E-03   -0.80107E-06    35   0.229E-02    0.226E-03
DAV:  20    -0.142125378325E+02   -0.59020E-04   -0.20641E-06    35   0.117E-02
   1 F= -.14212538E+02 E0= -.14212538E+02  d E =-.142125E+02  mag=    -0.0001
 curvature:   0.00 expect dE= 0.000E+00 dE for cont linesearch  0.000E+00
 trial: gam= 0.00000 g(F)=  0.698E-02 g(S)=  0.000E+00 ort = 0.000E+00 (trialstep = 0.100E+01)
 search vector abs. value=  0.698E-02
 bond charge predicted
       N       E                     dE             d eps       ncg     rms          rms(c)
DAV:   1    -0.142080302753E+02    0.44485E-02   -0.78631E-01    28   0.103E+01    0.347E-01
DAV:   2    -0.142067838670E+02    0.12464E-02   -0.22733E-02    42   0.144E+00    0.116E-01
DAV:   3    -0.142066517512E+02    0.13212E-03   -0.36449E-04    35   0.217E-01    0.589E-02
DAV:   4    -0.142066821645E+02   -0.30413E-04   -0.21853E-04    42   0.177E-01
   2 F= -.14206682E+02 E0= -.14206682E+02  d E =0.585567E-02  mag=     0.0000
 trial-energy change:    0.005856  1 .order    0.005674   -0.006985    0.018332
 step:   0.2759(harm=  0.2759)  dis= 0.00274  next Energy=   -14.213501 (dE=-0.964E-03)
 bond charge predicted
       N       E                     dE             d eps       ncg     rms          rms(c)
DAV:   1    -0.142141392441E+02   -0.74875E-02   -0.41056E-01    28   0.746E+00    0.243E-01
DAV:   2    -0.142135637408E+02    0.57550E-03   -0.11193E-02    42   0.102E+00    0.847E-02
DAV:   3    -0.142134959563E+02    0.67784E-04   -0.26115E-04    42   0.171E-01
   3 F= -.14213496E+02 E0= -.14213496E+02  d E =-.958124E-03  mag=     0.0000
 curvature:  -0.14 expect dE=-0.626E-04 dE for cont linesearch -0.394E-05
 trial: gam= 0.12893 g(F)=  0.454E-03 g(S)=  0.000E+00 ort =-0.446E-03 (trialstep = 0.855E+00)
 search vector abs. value=  0.455E-03
 reached required accuracy - stopping structural energy minimisation
 writing wavefunctions
NPROCS =  1
