 vasp.5.2.12 11Nov11 complex                                                    
  
 executed on             LinuxIFC date 2012.10.30  21:04:29
 running on    1 nodes
 distr:  one band on    1 nodes,    1 groups


--------------------------------------------------------------------------------------------------------


 INCAR:
 POTCAR:   PAW_PBE H 15Jun2001                    
 POTCAR:   PAW_PBE O 08Apr2002                    
 POTCAR:   PAW_PBE H 15Jun2001                    
   VRHFIN =H: ultrasoft test                                                    
   LEXCH  = PE                                                                  
   EATOM  =    12.4884 eV,     .9179 Ry                                         
                                                                                
   TITEL  = PAW_PBE H 15Jun2001                                                 
   LULTRA =        F    use ultrasoft PP ?                                      
   IUNSCR =        0    unscreen: 0-lin 1-nonlin 2-no                           
   RPACOR =     .000    partial core radius                                     
   POMASS =    1.000; ZVAL   =    1.000    mass and valenz                      
   RCORE  =    1.100    outmost cutoff radius                                   
   RWIGS  =     .700; RWIGS  =     .370    wigner-seitz radius (au A)           
   ENMAX  =  250.000; ENMIN  =  200.000 eV                                      
   RCLOC  =     .701    cutoff for local pot                                    
   LCOR   =        T    correct aug charges                                     
   LPAW   =        T    paw PP                                                  
   EAUG   =  400.000                                                            
   RMAX   =    2.174    core radius for proj-oper                               
   RAUG   =    1.200    factor for augmentation sphere                          
   RDEP   =    1.112    radius for radial grids                                 
   QCUT   =   -5.749; QGAM   =   11.498    optimization parameters              
                                                                                
   Description                                                                  
     l     E      TYP  RCUT    TYP  RCUT                                        
     0   .000     23  1.100                                                     
     0   .500     23  1.100                                                     
     1  -.300     23  1.100                                                     
  local pseudopotential read in
  atomic valenz-charges read in
  non local Contribution for L=           0  read in
    real space projection operators read in
  non local Contribution for L=           0  read in
    real space projection operators read in
  non local Contribution for L=           1  read in
    real space projection operators read in
    PAW grid and wavefunctions read in
 
   number of l-projection  operators is LMAX  =           3
   number of lm-projection operators is LMMAX =           5
 
 POTCAR:   PAW_PBE O 08Apr2002                    
   VRHFIN =O: s2p4                                                              
   LEXCH  = PE                                                                  
   EATOM  =   432.3788 eV,   31.7789 Ry                                         
                                                                                
   TITEL  = PAW_PBE O 08Apr2002                                                 
   LULTRA =        F    use ultrasoft PP ?                                      
   IUNSCR =        0    unscreen: 0-lin 1-nonlin 2-no                           
   RPACOR =     .000    partial core radius                                     
   POMASS =   16.000; ZVAL   =    6.000    mass and valenz                      
   RCORE  =    1.520    outmost cutoff radius                                   
   RWIGS  =    1.550; RWIGS  =     .820    wigner-seitz radius (au A)           
   ENMAX  =  400.000; ENMIN  =  300.000 eV                                      
   ICORE  =        2    local potential                                         
   LCOR   =        T    correct aug charges                                     
   LPAW   =        T    paw PP                                                  
   EAUG   =  605.392                                                            
   DEXC   =     .000                                                            
   RMAX   =    2.264    core radius for proj-oper                               
   RAUG   =    1.300    factor for augmentation sphere                          
   RDEP   =    1.550    radius for radial grids                                 
   QCUT   =   -5.520; QGAM   =   11.041    optimization parameters              
                                                                                
   Description                                                                  
     l     E      TYP  RCUT    TYP  RCUT                                        
     0   .000     23  1.200                                                     
     0  -.700     23  1.200                                                     
     1   .000     23  1.520                                                     
     1   .600     23  1.520                                                     
     2   .000      7  1.500                                                     
  local pseudopotential read in
  atomic valenz-charges read in
  non local Contribution for L=           0  read in
    real space projection operators read in
  non local Contribution for L=           0  read in
    real space projection operators read in
  non local Contribution for L=           1  read in
    real space projection operators read in
  non local Contribution for L=           1  read in
    real space projection operators read in
    PAW grid and wavefunctions read in
 
   number of l-projection  operators is LMAX  =           4
   number of lm-projection operators is LMMAX =           8
 
 PAW_PBE H 15Jun2001                    :
 energy of atom  1       EATOM=  -12.4884
 kinetic energy error for atom=    0.0203 (will be added to EATOM!!)
 PAW_PBE O 08Apr2002                    :
 energy of atom  2       EATOM= -432.3788
 kinetic energy error for atom=    0.3782 (will be added to EATOM!!)
 
 
 POSCAR:  H  O                                   
  positions in cartesian coordinates
  No initial velocities read in
 exchange correlation table for  LEXCH =        8
   RHO(1)=    0.500       N(1)  =     2000
   RHO(2)=  100.500       N(2)  =     4000
 


--------------------------------------------------------------------------------------------------------


 ion  position               nearest neighbor table
   1  0.500  0.576  0.470-   3 0.97
   2  0.500  0.424  0.470-   3 0.97
   3  0.500  0.500  0.530-   1 0.97   2 0.97
 
  LATTYP: Found a simple cubic cell.
 ALAT       =    10.0000000000
  
  Lattice vectors:
  
 A1 = (  10.0000000000,   0.0000000000,   0.0000000000)
 A2 = (   0.0000000000,  10.0000000000,   0.0000000000)
 A3 = (   0.0000000000,   0.0000000000,  10.0000000000)
 Subroutine PRICEL returns:
 Original cell was already a primitive cell.
 

Analysis of symmetry for initial positions (statically):

 Routine SETGRP: Setting up the symmetry group for a 
 simple cubic supercell.


 Subroutine GETGRP returns: Found  4 space group operations
 (whereof  4 operations were pure point group operations)
 out of a pool of 48 trial point group operations.


The static configuration has the point symmetry C_2v.

Analysis of symmetry for dynamics (positions and initial velocities):

 Subroutine DYNSYM returns: Found  4 space group operations
 (whereof  4 operations were pure point group operations)
 out of a pool of  4 trial space group operations
 (whereof  4 operations were pure point group operations)
 and found also     1 'primitive' translations


The dynamic configuration has the point symmetry C_2v.

Analysis of magnetic symmetry:

 Subroutine MAGSYM returns: Found  4 space group operations
 (whereof  4 operations were pure point group operations)
 out of a pool of  4 trial space group operations
 (whereof  4 operations were pure point group operations)
 and found also     1 'primitive' translations


The magnetic configuration has the point symmetry C_2v.
 
 
 KPOINTS: KPOINTS created by Atomic Simulation Env

Automatic generation of k-mesh.
 
 Subroutine IBZKPT returns following result:
 ===========================================
 
 Found      1 irreducible k-points:
 
 Following reciprocal coordinates:
            Coordinates               Weight
  0.000000  0.000000  0.000000      1.000000
 
 Following cartesian coordinates:
            Coordinates               Weight
  0.000000  0.000000  0.000000      1.000000
 


--------------------------------------------------------------------------------------------------------




 Dimension of arrays:
   k-points           NKPTS =      1   k-points in BZ     NKDIM =      1   number of bands    NBANDS=      7
   number of dos      NEDOS =    301   number of ions     NIONS =      3
   non local maximal  LDIM  =      4   non local SUM 2l+1 LMDIM =      8
   total plane-waves  NPLWV = 110592
   max r-space proj   IRMAX =      1   max aug-charges    IRDMAX=   1634
   dimension x,y,z NGX =    48 NGY =   48 NGZ =   48
   dimension x,y,z NGXF=    96 NGYF=   96 NGZF=   96
   support grid    NGXF=    96 NGYF=   96 NGZF=   96
   ions per type =               2   1
 NGX,Y,Z   is equivalent  to a cutoff of   7.98,  7.98,  7.98 a.u.
 NGXF,Y,Z  is equivalent  to a cutoff of  15.96, 15.96, 15.96 a.u.


 I would recommend the setting:
   dimension x,y,z NGX =    46 NGY =   46 NGZ =   46
 SYSTEM =  unknown system                          
 POSCAR =   H  O                                   

 Startparameter for this run:
   NWRITE =      2    write-flag & timer
   PREC   = normal    normal or accurate (medium, high low for compatibility)
   ISTART =      0    job   : 0-new  1-cont  2-samecut
   ICHARG =      2    charge: 1-file 2-atom 10-const
   ISPIN  =      2    spin polarized calculation?
   LNONCOLLINEAR =      F non collinear calculations
   LSORBIT =      F    spin-orbit coupling
   INIWAV =      1    electr: 0-lowe 1-rand  2-diag
   LASPH  =      F    aspherical Exc in radial PAW
   METAGGA=      F    non-selfconsistent MetaGGA calc.

 Electronic Relaxation 1
   ENCUT  =  350.0 eV  25.72 Ry    5.07 a.u.  15.25 15.25 15.25*2*pi/ulx,y,z
   ENINI  =  350.0     initial cutoff
   ENAUG  =  605.4 eV  augmentation charge cutoff
   NELM   =     60;   NELMIN=  2; NELMDL= -5     # of ELM steps 
   EDIFF  = 0.1E-03   stopping-criterion for ELM
   LREAL  =      F    real-space projection
   NLSPLINE    = F    spline interpolate recip. space projectors
   LCOMPAT=      F    compatible to vasp.4.4
   GGA_COMPAT  = T    GGA compatible to vasp.4.4-vasp.4.6
   LMAXPAW     = -100 max onsite density
   LMAXMIX     =    2 max onsite mixed and CHGCAR
   VOSKOWN=      0    Vosko Wilk Nusair interpolation
   ROPT   =    0.00000   0.00000
 Ionic relaxation
   EDIFFG = 0.1E-02   stopping-criterion for IOM
   NSW    =     10    number of steps for IOM
   NBLOCK =      1;   KBLOCK =     10    inner block; outer block 
   IBRION =      2    ionic relax: 0-MD 1-quasi-New 2-CG
   NFREE  =      1    steps in history (QN), initial steepest desc. (CG)
   ISIF   =      2    stress and relaxation
   IWAVPR =     11    prediction:  0-non 1-charg 2-wave 3-comb
   ISYM   =      2    0-nonsym 1-usesym 2-fastsym
   LCORR  =      T    Harris-Foulkes like correction to forces

   POTIM  = 0.5000    time-step for ionic-motion
   TEIN   =    0.0    initial temperature
   TEBEG  =    0.0;   TEEND  =   0.0 temperature during run
   SMASS  =  -3.00    Nose mass-parameter (am)
   estimated Nose-frequenzy (Omega)   =  0.10E-29 period in steps =****** mass=  -0.229E-26a.u.
   SCALEE = 1.0000    scale energy and forces
   NPACO  =    256;   APACO  = 16.0  distance and # of slots for P.C.
   PSTRESS=    0.0 pullay stress

  Mass of Ions in am
   POMASS =   1.00 16.00
  Ionic Valenz
   ZVAL   =   1.00  6.00
  Atomic Wigner-Seitz radii
   RWIGS  =  -1.00 -1.00
  virtual crystal weights 
   VCA    =   1.00  1.00
   NELECT =       8.0000    total number of electrons
   NUPDOWN=      -1.0000    fix difference up-down

 DOS related values:
   EMIN   =  10.00;   EMAX   =-10.00  energy-range for DOS
   EFERMI =   0.00
   ISMEAR =     0;   SIGMA  =   0.20  broadening in eV -4-tet -1-fermi 0-gaus

 Electronic relaxation 2 (details)
   IALGO  =     38    algorithm
   LDIAG  =      T    sub-space diagonalisation (order eigenvalues)
   LSUBROT=      T    optimize rotation matrix (better conditioning)
   TURBO    =      0    0=normal 1=particle mesh
   IRESTART =      0    0=no restart 2=restart with 2 vectors
   NREBOOT  =      0    no. of reboots
   NMIN     =      0    reboot dimension
   EREF     =   0.00    reference energy to select bands
   IMIX   =      4    mixing-type and parameters
     AMIX     =   0.40;   BMIX     =  1.00
     AMIX_MAG =   1.60;   BMIX_MAG =  1.00
     AMIN     =   0.10
     WC   =   100.;   INIMIX=   1;  MIXPRE=   1

 Intra band minimization:
   WEIMIN = 0.0010     energy-eigenvalue tresh-hold
   EBREAK =  0.36E-05  absolut break condition
   DEPER  =   0.30     relativ break condition  

   TIME   =   0.40     timestep for ELM

  volume/ion in A,a.u.               =     333.33      2249.44
  Fermi-wavevector in a.u.,A,eV,Ry     =   0.327420  0.618734  1.458594  0.107204
  Thomas-Fermi vector in A             =   1.220131
 
 Write flags
   LWAVE  =      T    write WAVECAR
   LCHARG =      T    write CHGCAR
   LVTOT  =      F    write LOCPOT, total local potential
   LVHAR  =      F    write LOCPOT, Hartree potential only
   LELF   =      F    write electronic localiz. function (ELF)
   LORBIT =      0    0 simple, 1 ext, 2 COOP (PROOUT)


 Dipole corrections
   LMONO  =      F    monopole corrections only (constant potential shift)
   LDIPOL =      F    correct potential (dipole corrections)
   IDIPOL =      0    1-x, 2-y, 3-z, 4-all directions 
   EPSILON=  1.0000000 bulk dielectric constant

 Exchange correlation treatment:
   GGA     =    --    GGA type
   LEXCH   =     8    internal setting for exchange type
   VOSKOWN=      0    Vosko Wilk Nusair interpolation
   LHFCALC =     F    Hartree Fock is set to
   LHFONE  =     F    Hartree Fock one center treatment
   AEXX    =    0.0000 exact exchange contribution

 Linear response parameters
   LEPSILON=     F    determine dielectric tensor
   LRPA    =     F    only Hartree local field effects (RPA)
   LNABLA  =     F    use nabla operator in PAW spheres
   LVEL    =     F    velocity operator in full k-point grid
   LINTERFAST=   F  fast interpolation
   KINTER  =     0    interpolate to denser k-point grid
   CSHIFT  =0.1000    complex shift for real part using Kramers Kronig
   OMEGAMAX=  -1.0    maximum frequency
   RTIME   =    0.100 relaxation time in fs

 Orbital magnetization related:
   ORBITALMAG=     F  switch on orbital magnetization
   LCHIMAG   =     F  perturbation theory with respect to B field
   DQ        =  0.001000  dq finite difference perturbation B field



--------------------------------------------------------------------------------------------------------


 conjugate gradient relaxation of ions
 charge density and potential will be updated during run
 spin polarized calculation
 Variant of blocked Davidson
 Davidson routine will perform the subspace rotation
 perform sub-space diagonalisation
    after iterative eigenvector-optimisation
 modified Broyden-mixing scheme, WC =      100.0
 initial mixing is a Kerker type mixing with AMIX =  0.4000 and BMIX =      1.0000
 Hartree-type preconditioning will be used
 using additional bands            3
 reciprocal scheme for non local part
 calculate Harris-corrections to forces 
   (improved forces if not selfconsistent)
 use gradient corrections 
 use of overlap-Matrix (Vanderbilt PP)
 Gauss-broadening in eV      SIGMA  =   0.20


--------------------------------------------------------------------------------------------------------


  energy-cutoff  :      350.00
  volume of cell :     1000.00
      direct lattice vectors                 reciprocal lattice vectors
    10.000000000  0.000000000  0.000000000     0.100000000  0.000000000  0.000000000
     0.000000000 10.000000000  0.000000000     0.000000000  0.100000000  0.000000000
     0.000000000  0.000000000 10.000000000     0.000000000  0.000000000  0.100000000

  length of vectors
    10.000000000 10.000000000 10.000000000     0.100000000  0.100000000  0.100000000


 
 k-points in units of 2pi/SCALE and weight: KPOINTS created by Atomic Simulation Env
   0.00000000  0.00000000  0.00000000       1.000
 
 k-points in reciprocal lattice and weights: KPOINTS created by Atomic Simulation Env
   0.00000000  0.00000000  0.00000000       1.000
 
 position of ions in fractional coordinates (direct lattice) 
   0.50000000  0.57632390  0.47018455
   0.50000000  0.42367610  0.47018455
   0.50000000  0.50000000  0.52981545
 
 position of ions in cartesian coordinates  (Angst):
   5.00000000  5.76323900  4.70184550
   5.00000000  4.23676100  4.70184550
   5.00000000  5.00000000  5.29815450
 


--------------------------------------------------------------------------------------------------------


 k-point  1 :  0.00000.00000.0000  plane waves:   14795

 maximum and minimum number of plane-waves per node :     14795    14795

 maximum number of plane-waves:     14795
 maximum index in each direction: 
   IXMAX=   15   IYMAX=   15   IZMAX=   15
   IXMIN=  -15   IYMIN=  -15   IZMIN=  -15

 WARNING: aliasing errors must be expected set NGX to  62 to avoid them
 WARNING: aliasing errors must be expected set NGY to  62 to avoid them
 WARNING: aliasing errors must be expected set NGZ to  62 to avoid them
 aliasing errors are usually negligible using standard VASP settings
 and one can safely disregard these warnings

 serial   3D FFT for wavefunctions
 parallel 3D FFT for charge:
    minimum data exchange during FFTs selected (reduces bandwidth)


 total amount of memory used by VASP on root node   147554. kBytes
========================================================================

   base      :      30000. kBytes
   nonl-proj :       2603. kBytes
   fftplans  :      30736. kBytes
   grid      :      80879. kBytes
   one-center:         18. kBytes
   wavefun   :       3318. kBytes
 
 Broyden mixing: mesh for mixing (old mesh)
   NGX = 31   NGY = 31   NGZ = 31
  (NGX  = 96   NGY  = 96   NGZ  = 96)
  gives a total of  29791 points

 initial charge density was supplied:
 charge density of overlapping atoms calculated
 number of electron       8.0000000 magnetization       3.0000000
 keeping initial charge density in first step


--------------------------------------------------------------------------------------------------------


 Maximum index for augmentation-charges         1370 (set IRDMAX)


--------------------------------------------------------------------------------------------------------


 First call to EWALD:  gamma=   0.177
 Maximum number of real-space cells 3x 3x 3
 Maximum number of reciprocal cells 3x 3x 3

    FEWALD:  cpu time    0.00: real time    0.00


----------------------------------------- Iteration    1(   1)  ---------------------------------------


    POTLOK:  cpu time    3.79: real time    4.13
    SETDIJ:  cpu time    0.05: real time    0.05
     EDDAV:  cpu time    2.02: real time    2.20
       DOS:  cpu time    0.00: real time    0.00
    --------------------------------------------
      LOOP:  cpu time    5.87: real time    6.39

 eigenvalue-minimisations  :    49
 total energy-change (2. order) : 0.4700766E+02  (-0.1798446E+03)
 number of electron       8.0000000 magnetization       3.0000000
 augmentation part        8.0000000 magnetization       3.0000000

 Free energy of the ion-electron system (eV)
  ---------------------------------------------------
  alpha Z        PSCENC =         0.22422278
  Ewald energy   TEWEN  =        57.50960611
  -1/2 Hartree   DENC   =      -417.15863829
  -exchange  EXHF       =         0.00000000
  -V(xc)+E(xc)   XCENC  =        33.05787041
  PAW double counting   =       246.88637530     -248.74825379
  entropy T*S    EENTRO =        -0.06192401
  eigenvalues    EBANDS =       -81.63847989
  atomic energy  EATOM  =       456.93688444
  ---------------------------------------------------
  free energy    TOTEN  =        47.00766306 eV

  energy without entropy =       47.06958707  energy(sigma->0) =       47.03862507


--------------------------------------------------------------------------------------------------------




----------------------------------------- Iteration    1(   2)  ---------------------------------------


     EDDAV:  cpu time    2.09: real time    2.71
       DOS:  cpu time    0.00: real time    0.00
    --------------------------------------------
      LOOP:  cpu time    2.09: real time    2.80

 eigenvalue-minimisations  :    56
 total energy-change (2. order) :-0.5421078E+02  (-0.5352938E+02)
 number of electron       8.0000000 magnetization       3.0000000
 augmentation part        8.0000000 magnetization       3.0000000

 Free energy of the ion-electron system (eV)
  ---------------------------------------------------
  alpha Z        PSCENC =         0.22422278
  Ewald energy   TEWEN  =        57.50960611
  -1/2 Hartree   DENC   =      -417.15863829
  -exchange  EXHF       =         0.00000000
  -V(xc)+E(xc)   XCENC  =        33.05787041
  PAW double counting   =       246.88637530     -248.74825379
  entropy T*S    EENTRO =         0.00000000
  eigenvalues    EBANDS =      -135.91118670
  atomic energy  EATOM  =       456.93688444
  ---------------------------------------------------
  free energy    TOTEN  =        -7.20311973 eV

  energy without entropy =       -7.20311973  energy(sigma->0) =       -7.20311973


--------------------------------------------------------------------------------------------------------




----------------------------------------- Iteration    1(   3)  ---------------------------------------


     EDDAV:  cpu time    1.22: real time    1.61
       DOS:  cpu time    0.00: real time    0.00
    --------------------------------------------
      LOOP:  cpu time    1.22: real time    1.62

 eigenvalue-minimisations  :    28
 total energy-change (2. order) :-0.5493920E+01  (-0.5493920E+01)
 number of electron       8.0000000 magnetization       3.0000000
 augmentation part        8.0000000 magnetization       3.0000000

 Free energy of the ion-electron system (eV)
  ---------------------------------------------------
  alpha Z        PSCENC =         0.22422278
  Ewald energy   TEWEN  =        57.50960611
  -1/2 Hartree   DENC   =      -417.15863829
  -exchange  EXHF       =         0.00000000
  -V(xc)+E(xc)   XCENC  =        33.05787041
  PAW double counting   =       246.88637530     -248.74825379
  entropy T*S    EENTRO =         0.00000000
  eigenvalues    EBANDS =      -141.40510682
  atomic energy  EATOM  =       456.93688444
  ---------------------------------------------------
  free energy    TOTEN  =       -12.69703986 eV

  energy without entropy =      -12.69703986  energy(sigma->0) =      -12.69703986


--------------------------------------------------------------------------------------------------------




----------------------------------------- Iteration    1(   4)  ---------------------------------------


     EDDAV:  cpu time    2.06: real time    2.39
       DOS:  cpu time    0.00: real time    0.00
    --------------------------------------------
      LOOP:  cpu time    2.06: real time    2.41

 eigenvalue-minimisations  :    56
 total energy-change (2. order) :-0.9425387E-01  (-0.9425387E-01)
 number of electron       8.0000000 magnetization       3.0000000
 augmentation part        8.0000000 magnetization       3.0000000

 Free energy of the ion-electron system (eV)
  ---------------------------------------------------
  alpha Z        PSCENC =         0.22422278
  Ewald energy   TEWEN  =        57.50960611
  -1/2 Hartree   DENC   =      -417.15863829
  -exchange  EXHF       =         0.00000000
  -V(xc)+E(xc)   XCENC  =        33.05787041
  PAW double counting   =       246.88637530     -248.74825379
  entropy T*S    EENTRO =         0.00000000
  eigenvalues    EBANDS =      -141.49936069
  atomic energy  EATOM  =       456.93688444
  ---------------------------------------------------
  free energy    TOTEN  =       -12.79129373 eV

  energy without entropy =      -12.79129373  energy(sigma->0) =      -12.79129373


--------------------------------------------------------------------------------------------------------




----------------------------------------- Iteration    1(   5)  ---------------------------------------


     EDDAV:  cpu time    1.62: real time    2.02
       DOS:  cpu time    0.00: real time    0.00
    CHARGE:  cpu time    0.40: real time    0.40
    MIXING:  cpu time    0.07: real time    0.07
    --------------------------------------------
      LOOP:  cpu time    2.09: real time    2.53

 eigenvalue-minimisations  :    42
 total energy-change (2. order) :-0.2069871E-04  (-0.2069871E-04)
 number of electron       7.9999914 magnetization       1.6413927
 augmentation part        0.8330332 magnetization       1.6163668

 Broyden mixing:
  rms(total) = 0.13510E+01    rms(broyden)= 0.13495E+01
  rms(prec ) = 0.15488E+01
  weight for this iteration     100.00

 Free energy of the ion-electron system (eV)
  ---------------------------------------------------
  alpha Z        PSCENC =         0.22422278
  Ewald energy   TEWEN  =        57.50960611
  -1/2 Hartree   DENC   =      -417.15863829
  -exchange  EXHF       =         0.00000000
  -V(xc)+E(xc)   XCENC  =        33.05787041
  PAW double counting   =       246.88637530     -248.74825379
  entropy T*S    EENTRO =         0.00000000
  eigenvalues    EBANDS =      -141.49938139
  atomic energy  EATOM  =       456.93688444
  ---------------------------------------------------
  free energy    TOTEN  =       -12.79131443 eV

  energy without entropy =      -12.79131443  energy(sigma->0) =      -12.79131443


--------------------------------------------------------------------------------------------------------




----------------------------------------- Iteration    1(   6)  ---------------------------------------


    POTLOK:  cpu time    3.69: real time    4.29
    SETDIJ:  cpu time    0.04: real time    0.04
     EDDAV:  cpu time    1.11: real time    1.33
       DOS:  cpu time    0.00: real time    0.00
    CHARGE:  cpu time    0.39: real time    0.39
    MIXING:  cpu time    0.08: real time    0.08
    --------------------------------------------
      LOOP:  cpu time    5.32: real time    6.15

 eigenvalue-minimisations  :    28
 total energy-change (2. order) : 0.8240535E+01  (-0.2179030E+01)
 number of electron       7.9999926 magnetization       0.9529323
 augmentation part        0.7127225 magnetization       0.8858391

 Broyden mixing:
  rms(total) = 0.45983E+00    rms(broyden)= 0.45826E+00
  rms(prec ) = 0.52837E+00
  weight for this iteration     100.00

 eigenvalues of (default mixing * dielectric matrix)
  average eigenvalue GAMMA=   0.8509
  0.8509

 Free energy of the ion-electron system (eV)
  ---------------------------------------------------
  alpha Z        PSCENC =         0.22422278
  Ewald energy   TEWEN  =        57.50960611
  -1/2 Hartree   DENC   =      -442.26460684
  -exchange  EXHF       =         0.00000000
  -V(xc)+E(xc)   XCENC  =        41.81355055
  PAW double counting   =       307.73483375     -309.91197310
  entropy T*S    EENTRO =         0.00000000
  eigenvalues    EBANDS =      -116.59329668
  atomic energy  EATOM  =       456.93688444
  ---------------------------------------------------
  free energy    TOTEN  =        -4.55077899 eV

  energy without entropy =       -4.55077899  energy(sigma->0) =       -4.55077899


--------------------------------------------------------------------------------------------------------




----------------------------------------- Iteration    1(   7)  ---------------------------------------


    POTLOK:  cpu time    3.66: real time    4.06
    SETDIJ:  cpu time    0.04: real time    0.04
     EDDAV:  cpu time    1.05: real time    1.05
       DOS:  cpu time    0.00: real time    0.00
    CHARGE:  cpu time    0.36: real time    0.47
    MIXING:  cpu time    0.08: real time    0.11
    --------------------------------------------
      LOOP:  cpu time    5.21: real time    5.76

 eigenvalue-minimisations  :    28
 total energy-change (2. order) :-0.6806394E+01  (-0.5249433E+00)
 number of electron       7.9999930 magnetization       0.5381588
 augmentation part        0.6760832 magnetization       0.5054651

 Broyden mixing:
  rms(total) = 0.29122E+00    rms(broyden)= 0.29112E+00
  rms(prec ) = 0.33182E+00
  weight for this iteration     100.00

 eigenvalues of (default mixing * dielectric matrix)
  average eigenvalue GAMMA=   0.8756
  0.8756  0.8756

 Free energy of the ion-electron system (eV)
  ---------------------------------------------------
  alpha Z        PSCENC =         0.22422278
  Ewald energy   TEWEN  =        57.50960611
  -1/2 Hartree   DENC   =      -448.35644409
  -exchange  EXHF       =         0.00000000
  -V(xc)+E(xc)   XCENC  =        36.55724112
  PAW double counting   =       324.39719911     -326.54360426
  entropy T*S    EENTRO =         0.00000000
  eigenvalues    EBANDS =      -112.08227863
  atomic energy  EATOM  =       456.93688444
  ---------------------------------------------------
  free energy    TOTEN  =       -11.35717342 eV

  energy without entropy =      -11.35717342  energy(sigma->0) =      -11.35717342


--------------------------------------------------------------------------------------------------------




----------------------------------------- Iteration    1(   8)  ---------------------------------------


    POTLOK:  cpu time    3.58: real time    4.27
    SETDIJ:  cpu time    0.04: real time    0.04
     EDDAV:  cpu time    1.34: real time    1.34
       DOS:  cpu time    0.00: real time    0.00
    CHARGE:  cpu time    0.36: real time    0.37
    MIXING:  cpu time    0.08: real time    0.08
    --------------------------------------------
      LOOP:  cpu time    5.42: real time    6.18

 eigenvalue-minimisations  :    35
 total energy-change (2. order) :-0.9749244E+00  (-0.3289436E-01)
 number of electron       7.9999929 magnetization       0.0455018
 augmentation part        0.6856702 magnetization       0.0279792

 Broyden mixing:
  rms(total) = 0.15367E+00    rms(broyden)= 0.15364E+00
  rms(prec ) = 0.18356E+00
  weight for this iteration     100.00

 eigenvalues of (default mixing * dielectric matrix)
  average eigenvalue GAMMA=   1.1774
  1.8288  0.9866  0.7169

 Free energy of the ion-electron system (eV)
  ---------------------------------------------------
  alpha Z        PSCENC =         0.22422278
  Ewald energy   TEWEN  =        57.50960611
  -1/2 Hartree   DENC   =      -447.89359531
  -exchange  EXHF       =         0.00000000
  -V(xc)+E(xc)   XCENC  =        35.60479298
  PAW double counting   =       326.84350682     -328.92044366
  entropy T*S    EENTRO =         0.00000000
  eigenvalues    EBANDS =      -112.63707203
  atomic energy  EATOM  =       456.93688444
  ---------------------------------------------------
  free energy    TOTEN  =       -12.33209787 eV

  energy without entropy =      -12.33209787  energy(sigma->0) =      -12.33209787


--------------------------------------------------------------------------------------------------------




----------------------------------------- Iteration    1(   9)  ---------------------------------------


    POTLOK:  cpu time    3.62: real time    3.65
    SETDIJ:  cpu time    0.04: real time    0.04
     EDDAV:  cpu time    1.38: real time    1.52
       DOS:  cpu time    0.00: real time    0.00
    CHARGE:  cpu time    0.39: real time    0.43
    MIXING:  cpu time    0.09: real time    0.14
    --------------------------------------------
      LOOP:  cpu time    5.53: real time    5.80

 eigenvalue-minimisations  :    35
 total energy-change (2. order) :-0.1743830E+01  (-0.7382334E-01)
 number of electron       7.9999929 magnetization      -0.0039955
 augmentation part        0.6845079 magnetization      -0.0047521

 Broyden mixing:
  rms(total) = 0.30553E-01    rms(broyden)= 0.30326E-01
  rms(prec ) = 0.53209E-01
  weight for this iteration     100.00

 eigenvalues of (default mixing * dielectric matrix)
  average eigenvalue GAMMA=   1.1602
  2.0203  0.9622  0.9622  0.6960

 Free energy of the ion-electron system (eV)
  ---------------------------------------------------
  alpha Z        PSCENC =         0.22422278
  Ewald energy   TEWEN  =        57.50960611
  -1/2 Hartree   DENC   =      -449.66175847
  -exchange  EXHF       =         0.00000000
  -V(xc)+E(xc)   XCENC  =        34.14978239
  PAW double counting   =       334.07933536     -336.10501632
  entropy T*S    EENTRO =         0.00000000
  eigenvalues    EBANDS =      -111.20898403
  atomic energy  EATOM  =       456.93688444
  ---------------------------------------------------
  free energy    TOTEN  =       -14.07592773 eV

  energy without entropy =      -14.07592773  energy(sigma->0) =      -14.07592773


--------------------------------------------------------------------------------------------------------




----------------------------------------- Iteration    1(  10)  ---------------------------------------


    POTLOK:  cpu time    3.65: real time    4.13
    SETDIJ:  cpu time    0.04: real time    0.04
     EDDAV:  cpu time    1.36: real time    1.41
       DOS:  cpu time    0.00: real time    0.00
    CHARGE:  cpu time    0.37: real time    0.40
    MIXING:  cpu time    0.09: real time    0.09
    --------------------------------------------
      LOOP:  cpu time    5.53: real time    6.12

 eigenvalue-minimisations  :    35
 total energy-change (2. order) :-0.8781821E-01  (-0.1457719E-02)
 number of electron       7.9999929 magnetization      -0.0146640
 augmentation part        0.6812238 magnetization      -0.0136193

 Broyden mixing:
  rms(total) = 0.14166E-01    rms(broyden)= 0.14113E-01
  rms(prec ) = 0.35091E-01
  weight for this iteration     100.00

 eigenvalues of (default mixing * dielectric matrix)
  average eigenvalue GAMMA=   1.1674
  2.1531  1.1708  0.6913  0.9109  0.9109

 Free energy of the ion-electron system (eV)
  ---------------------------------------------------
  alpha Z        PSCENC =         0.22422278
  Ewald energy   TEWEN  =        57.50960611
  -1/2 Hartree   DENC   =      -450.48464126
  -exchange  EXHF       =         0.00000000
  -V(xc)+E(xc)   XCENC  =        34.09779368
  PAW double counting   =       335.62582105     -337.65263886
  entropy T*S    EENTRO =         0.00000000
  eigenvalues    EBANDS =      -110.42079389
  atomic energy  EATOM  =       456.93688444
  ---------------------------------------------------
  free energy    TOTEN  =       -14.16374595 eV

  energy without entropy =      -14.16374595  energy(sigma->0) =      -14.16374595


--------------------------------------------------------------------------------------------------------




----------------------------------------- Iteration    1(  11)  ---------------------------------------


    POTLOK:  cpu time    3.55: real time    4.10
    SETDIJ:  cpu time    0.04: real time    0.04
     EDDAV:  cpu time    1.33: real time    1.37
       DOS:  cpu time    0.00: real time    0.00
    CHARGE:  cpu time    0.40: real time    0.40
    MIXING:  cpu time    0.10: real time    0.10
    --------------------------------------------
      LOOP:  cpu time    5.42: real time    6.02

 eigenvalue-minimisations  :    35
 total energy-change (2. order) :-0.1971196E-01  (-0.8055207E-03)
 number of electron       7.9999930 magnetization      -0.0090749
 augmentation part        0.6789028 magnetization      -0.0087880

 Broyden mixing:
  rms(total) = 0.11727E-01    rms(broyden)= 0.11720E-01
  rms(prec ) = 0.24039E-01
  weight for this iteration     100.00

 eigenvalues of (default mixing * dielectric matrix)
  average eigenvalue GAMMA=   1.1587
  2.2779  1.5043  0.9531  0.8106  0.7471  0.6589

 Free energy of the ion-electron system (eV)
  ---------------------------------------------------
  alpha Z        PSCENC =         0.22422278
  Ewald energy   TEWEN  =        57.50960611
  -1/2 Hartree   DENC   =      -451.21190198
  -exchange  EXHF       =         0.00000000
  -V(xc)+E(xc)   XCENC  =        34.10709655
  PAW double counting   =       335.95516223     -337.97801464
  entropy T*S    EENTRO =         0.00000000
  eigenvalues    EBANDS =      -109.72651340
  atomic energy  EATOM  =       456.93688444
  ---------------------------------------------------
  free energy    TOTEN  =       -14.18345791 eV

  energy without entropy =      -14.18345791  energy(sigma->0) =      -14.18345791


--------------------------------------------------------------------------------------------------------




----------------------------------------- Iteration    1(  12)  ---------------------------------------


    POTLOK:  cpu time    3.58: real time    3.96
    SETDIJ:  cpu time    0.04: real time    0.04
     EDDAV:  cpu time    1.51: real time    1.88
       DOS:  cpu time    0.00: real time    0.00
    CHARGE:  cpu time    0.39: real time    0.61
    MIXING:  cpu time    0.10: real time    0.10
    --------------------------------------------
      LOOP:  cpu time    5.63: real time    6.74

 eigenvalue-minimisations  :    42
 total energy-change (2. order) :-0.1729075E-02  (-0.1743168E-03)
 number of electron       7.9999930 magnetization       0.0049432
 augmentation part        0.6790157 magnetization       0.0047088

 Broyden mixing:
  rms(total) = 0.71018E-02    rms(broyden)= 0.71011E-02
  rms(prec ) = 0.16679E-01
  weight for this iteration     100.00

 eigenvalues of (default mixing * dielectric matrix)
  average eigenvalue GAMMA=   1.3406
  2.5980  2.2342  1.1281  1.1281  0.9231  0.6979  0.6745

 Free energy of the ion-electron system (eV)
  ---------------------------------------------------
  alpha Z        PSCENC =         0.22422278
  Ewald energy   TEWEN  =        57.50960611
  -1/2 Hartree   DENC   =      -451.34375507
  -exchange  EXHF       =         0.00000000
  -V(xc)+E(xc)   XCENC  =        34.10448825
  PAW double counting   =       335.45043581     -337.46929914
  entropy T*S    EENTRO =         0.00000000
  eigenvalues    EBANDS =      -109.59777017
  atomic energy  EATOM  =       456.93688444
  ---------------------------------------------------
  free energy    TOTEN  =       -14.18518698 eV

  energy without entropy =      -14.18518698  energy(sigma->0) =      -14.18518698


--------------------------------------------------------------------------------------------------------




----------------------------------------- Iteration    1(  13)  ---------------------------------------


    POTLOK:  cpu time    3.52: real time    4.09
    SETDIJ:  cpu time    0.04: real time    0.04
     EDDAV:  cpu time    1.13: real time    1.45
       DOS:  cpu time    0.00: real time    0.00
    CHARGE:  cpu time    0.38: real time    0.38
    MIXING:  cpu time    0.13: real time    0.13
    --------------------------------------------
      LOOP:  cpu time    5.21: real time    6.11

 eigenvalue-minimisations  :    28
 total energy-change (2. order) :-0.1836263E-01  (-0.2842946E-03)
 number of electron       7.9999930 magnetization       0.0030310
 augmentation part        0.6804592 magnetization       0.0025467

 Broyden mixing:
  rms(total) = 0.71598E-02    rms(broyden)= 0.71543E-02
  rms(prec ) = 0.11414E-01
  weight for this iteration     100.00

 eigenvalues of (default mixing * dielectric matrix)
  average eigenvalue GAMMA=   1.3392
  3.2428  2.2395  1.2296  1.0527  0.7803  0.7803  0.6941  0.6941

 Free energy of the ion-electron system (eV)
  ---------------------------------------------------
  alpha Z        PSCENC =         0.22422278
  Ewald energy   TEWEN  =        57.50960611
  -1/2 Hartree   DENC   =      -451.33222402
  -exchange  EXHF       =         0.00000000
  -V(xc)+E(xc)   XCENC  =        34.07223541
  PAW double counting   =       334.33807321     -336.35188527
  entropy T*S    EENTRO =         0.00000000
  eigenvalues    EBANDS =      -109.60046228
  atomic energy  EATOM  =       456.93688444
  ---------------------------------------------------
  free energy    TOTEN  =       -14.20354961 eV

  energy without entropy =      -14.20354961  energy(sigma->0) =      -14.20354961


--------------------------------------------------------------------------------------------------------




----------------------------------------- Iteration    1(  14)  ---------------------------------------


    POTLOK:  cpu time    4.45: real time    5.58
    SETDIJ:  cpu time    0.06: real time    0.06
     EDDAV:  cpu time    2.31: real time    2.75
       DOS:  cpu time    0.00: real time    0.00
    CHARGE:  cpu time    0.68: real time    0.93
    MIXING:  cpu time    0.24: real time    0.35
    --------------------------------------------
      LOOP:  cpu time    7.75: real time    9.73

 eigenvalue-minimisations  :    35
 total energy-change (2. order) :-0.2914538E-02  (-0.8556493E-04)
 number of electron       7.9999930 magnetization       0.0016730
 augmentation part        0.6796672 magnetization       0.0016284

 Broyden mixing:
  rms(total) = 0.30396E-02    rms(broyden)= 0.30365E-02
  rms(prec ) = 0.69606E-02
  weight for this iteration     100.00

 eigenvalues of (default mixing * dielectric matrix)
  average eigenvalue GAMMA=   1.4180
  3.7566  2.3108  1.4569  1.1461  0.9878  0.9878  0.7569  0.7171  0.6418

 Free energy of the ion-electron system (eV)
  ---------------------------------------------------
  alpha Z        PSCENC =         0.22422278
  Ewald energy   TEWEN  =        57.50960611
  -1/2 Hartree   DENC   =      -451.47360291
  -exchange  EXHF       =         0.00000000
  -V(xc)+E(xc)   XCENC  =        34.07737389
  PAW double counting   =       334.55858779     -336.57466197
  entropy T*S    EENTRO =         0.00000000
  eigenvalues    EBANDS =      -109.46487429
  atomic energy  EATOM  =       456.93688444
  ---------------------------------------------------
  free energy    TOTEN  =       -14.20646415 eV

  energy without entropy =      -14.20646415  energy(sigma->0) =      -14.20646415


--------------------------------------------------------------------------------------------------------




----------------------------------------- Iteration    1(  15)  ---------------------------------------


    POTLOK:  cpu time    4.48: real time    5.24
    SETDIJ:  cpu time    0.05: real time    0.05
     EDDAV:  cpu time    1.18: real time    1.54
       DOS:  cpu time    0.00: real time    0.00
    CHARGE:  cpu time    0.44: real time    0.54
    MIXING:  cpu time    0.14: real time    0.14
    --------------------------------------------
      LOOP:  cpu time    6.29: real time    7.52

 eigenvalue-minimisations  :    28
 total energy-change (2. order) :-0.2567630E-02  (-0.8901564E-04)
 number of electron       7.9999930 magnetization       0.0001257
 augmentation part        0.6790189 magnetization       0.0002872

 Broyden mixing:
  rms(total) = 0.33163E-02    rms(broyden)= 0.33136E-02
  rms(prec ) = 0.50404E-02
  weight for this iteration     100.00

 eigenvalues of (default mixing * dielectric matrix)
  average eigenvalue GAMMA=   1.4659
  4.3315  2.4321  1.8163  1.1925  0.9963  0.9066  0.9066  0.7450  0.7010  0.6310

 Free energy of the ion-electron system (eV)
  ---------------------------------------------------
  alpha Z        PSCENC =         0.22422278
  Ewald energy   TEWEN  =        57.50960611
  -1/2 Hartree   DENC   =      -451.59633113
  -exchange  EXHF       =         0.00000000
  -V(xc)+E(xc)   XCENC  =        34.08067779
  PAW double counting   =       334.73842809     -336.75700210
  entropy T*S    EENTRO =         0.00000000
  eigenvalues    EBANDS =      -109.34551777
  atomic energy  EATOM  =       456.93688444
  ---------------------------------------------------
  free energy    TOTEN  =       -14.20903178 eV

  energy without entropy =      -14.20903178  energy(sigma->0) =      -14.20903178


--------------------------------------------------------------------------------------------------------




----------------------------------------- Iteration    1(  16)  ---------------------------------------


    POTLOK:  cpu time    3.68: real time    4.26
    SETDIJ:  cpu time    0.04: real time    0.04
     EDDAV:  cpu time    1.08: real time    1.15
       DOS:  cpu time    0.00: real time    0.00
    CHARGE:  cpu time    0.37: real time    0.37
    MIXING:  cpu time    0.12: real time    0.29
    --------------------------------------------
      LOOP:  cpu time    5.30: real time    6.12

 eigenvalue-minimisations  :    28
 total energy-change (2. order) :-0.2125499E-02  (-0.2032424E-04)
 number of electron       7.9999930 magnetization      -0.0009025
 augmentation part        0.6792671 magnetization      -0.0008078

 Broyden mixing:
  rms(total) = 0.13825E-02    rms(broyden)= 0.13822E-02
  rms(prec ) = 0.25388E-02
  weight for this iteration     100.00

 eigenvalues of (default mixing * dielectric matrix)
  average eigenvalue GAMMA=   1.6303
  5.5754  2.9111  2.2067  1.2911  1.0057  1.0057  1.0275  0.8704  0.7352  0.6769
  0.6274

 Free energy of the ion-electron system (eV)
  ---------------------------------------------------
  alpha Z        PSCENC =         0.22422278
  Ewald energy   TEWEN  =        57.50960611
  -1/2 Hartree   DENC   =      -451.56106667
  -exchange  EXHF       =         0.00000000
  -V(xc)+E(xc)   XCENC  =        34.07620355
  PAW double counting   =       334.70074805     -336.71888279
  entropy T*S    EENTRO =         0.00000000
  eigenvalues    EBANDS =      -109.37887275
  atomic energy  EATOM  =       456.93688444
  ---------------------------------------------------
  free energy    TOTEN  =       -14.21115728 eV

  energy without entropy =      -14.21115728  energy(sigma->0) =      -14.21115728


--------------------------------------------------------------------------------------------------------




----------------------------------------- Iteration    1(  17)  ---------------------------------------


    POTLOK:  cpu time    3.53: real time    4.22
    SETDIJ:  cpu time    0.04: real time    0.04
     EDDAV:  cpu time    1.12: real time    1.29
       DOS:  cpu time    0.00: real time    0.00
    CHARGE:  cpu time    0.36: real time    0.37
    MIXING:  cpu time    0.14: real time    0.14
    --------------------------------------------
      LOOP:  cpu time    5.21: real time    6.13

 eigenvalue-minimisations  :    28
 total energy-change (2. order) :-0.6535087E-03  (-0.6833162E-05)
 number of electron       7.9999930 magnetization      -0.0001566
 augmentation part        0.6794063 magnetization      -0.0001203

 Broyden mixing:
  rms(total) = 0.69371E-03    rms(broyden)= 0.69317E-03
  rms(prec ) = 0.14566E-02
  weight for this iteration     100.00

 eigenvalues of (default mixing * dielectric matrix)
  average eigenvalue GAMMA=   1.6730
  6.2711  3.1434  2.2255  1.5134  0.9924  0.9924  1.0618  1.0618  0.7636  0.7530
  0.6692  0.6280

 Free energy of the ion-electron system (eV)
  ---------------------------------------------------
  alpha Z        PSCENC =         0.22422278
  Ewald energy   TEWEN  =        57.50960611
  -1/2 Hartree   DENC   =      -451.53336297
  -exchange  EXHF       =         0.00000000
  -V(xc)+E(xc)   XCENC  =        34.07387708
  PAW double counting   =       334.69829981     -336.71602210
  entropy T*S    EENTRO =         0.00000000
  eigenvalues    EBANDS =      -109.40531594
  atomic energy  EATOM  =       456.93688444
  ---------------------------------------------------
  free energy    TOTEN  =       -14.21181079 eV

  energy without entropy =      -14.21181079  energy(sigma->0) =      -14.21181079


--------------------------------------------------------------------------------------------------------




----------------------------------------- Iteration    1(  18)  ---------------------------------------


    POTLOK:  cpu time    3.48: real time    3.83
    SETDIJ:  cpu time    0.04: real time    0.04
     EDDAV:  cpu time    1.46: real time    1.66
       DOS:  cpu time    0.00: real time    0.00
    CHARGE:  cpu time    0.37: real time    0.51
    MIXING:  cpu time    0.15: real time    0.15
    --------------------------------------------
      LOOP:  cpu time    5.50: real time    6.33

 eigenvalue-minimisations  :    42
 total energy-change (2. order) :-0.4285331E-03  (-0.3790567E-05)
 number of electron       7.9999930 magnetization       0.0002595
 augmentation part        0.6793697 magnetization       0.0002459

 Broyden mixing:
  rms(total) = 0.38291E-03    rms(broyden)= 0.38247E-03
  rms(prec ) = 0.74576E-03
  weight for this iteration     100.00

 eigenvalues of (default mixing * dielectric matrix)
  average eigenvalue GAMMA=   1.7785
  7.0874  3.4797  2.2856  2.2856  1.2720  0.9978  0.9978  1.0445  0.9339  0.7230
  0.7230  0.6637  0.6262

 Free energy of the ion-electron system (eV)
  ---------------------------------------------------
  alpha Z        PSCENC =         0.22422278
  Ewald energy   TEWEN  =        57.50960611
  -1/2 Hartree   DENC   =      -451.52272503
  -exchange  EXHF       =         0.00000000
  -V(xc)+E(xc)   XCENC  =        34.07282417
  PAW double counting   =       334.70602229     -336.72344289
  entropy T*S    EENTRO =         0.00000000
  eigenvalues    EBANDS =      -109.41563119
  atomic energy  EATOM  =       456.93688444
  ---------------------------------------------------
  free energy    TOTEN  =       -14.21223932 eV

  energy without entropy =      -14.21223932  energy(sigma->0) =      -14.21223932


--------------------------------------------------------------------------------------------------------




----------------------------------------- Iteration    1(  19)  ---------------------------------------


    POTLOK:  cpu time    3.68: real time    4.42
    SETDIJ:  cpu time    0.04: real time    0.04
     EDDAV:  cpu time    1.46: real time    1.74
       DOS:  cpu time    0.00: real time    0.00
    CHARGE:  cpu time    0.39: real time    0.46
    MIXING:  cpu time    0.17: real time    0.28
    --------------------------------------------
      LOOP:  cpu time    5.75: real time    7.13

 eigenvalue-minimisations  :    35
 total energy-change (2. order) :-0.2394906E-03  (-0.8010672E-06)
 number of electron       7.9999930 magnetization       0.0000388
 augmentation part        0.6793693 magnetization       0.0000229

 Broyden mixing:
  rms(total) = 0.22559E-03    rms(broyden)= 0.22550E-03
  rms(prec ) = 0.38105E-03
  weight for this iteration     100.00

 eigenvalues of (default mixing * dielectric matrix)
  average eigenvalue GAMMA=   1.8370
  7.8388  3.9037  2.7419  2.2078  1.3955  1.0107  1.0107  1.0328  1.0328  0.8312
  0.7460  0.6885  0.6262  0.6518

 Free energy of the ion-electron system (eV)
  ---------------------------------------------------
  alpha Z        PSCENC =         0.22422278
  Ewald energy   TEWEN  =        57.50960611
  -1/2 Hartree   DENC   =      -451.51221497
  -exchange  EXHF       =         0.00000000
  -V(xc)+E(xc)   XCENC  =        34.07204264
  PAW double counting   =       334.69828935     -336.71550835
  entropy T*S    EENTRO =         0.00000000
  eigenvalues    EBANDS =      -109.42580081
  atomic energy  EATOM  =       456.93688444
  ---------------------------------------------------
  free energy    TOTEN  =       -14.21247881 eV

  energy without entropy =      -14.21247881  energy(sigma->0) =      -14.21247881


--------------------------------------------------------------------------------------------------------




----------------------------------------- Iteration    1(  20)  ---------------------------------------


    POTLOK:  cpu time    3.65: real time    4.09
    SETDIJ:  cpu time    0.04: real time    0.04
     EDDAV:  cpu time    1.42: real time    1.75
       DOS:  cpu time    0.00: real time    0.00
    --------------------------------------------
      LOOP:  cpu time    5.11: real time    5.90

 eigenvalue-minimisations  :    35
 total energy-change (2. order) :-0.5902008E-04  (-0.2064118E-06)
 number of electron       7.9999930 magnetization       0.0000388
 augmentation part        0.6793693 magnetization       0.0000229

 Free energy of the ion-electron system (eV)
  ---------------------------------------------------
  alpha Z        PSCENC =         0.22422278
  Ewald energy   TEWEN  =        57.50960611
  -1/2 Hartree   DENC   =      -451.50940353
  -exchange  EXHF       =         0.00000000
  -V(xc)+E(xc)   XCENC  =        34.07191151
  PAW double counting   =       334.69435705     -336.71155254
  entropy T*S    EENTRO =         0.00000000
  eigenvalues    EBANDS =      -109.42856366
  atomic energy  EATOM  =       456.93688444
  ---------------------------------------------------
  free energy    TOTEN  =       -14.21253783 eV

  energy without entropy =      -14.21253783  energy(sigma->0) =      -14.21253783


--------------------------------------------------------------------------------------------------------




 average (electrostatic) potential at core
  the test charge radii are     0.5201  0.7215
  (the norm of the test charge is              1.0000)
       1 -44.6080       2 -44.6080       3 -80.7453
 
 
 
 E-fermi :  -6.1614     XC(G=0):  -0.5565     alpha+bet : -0.1301


 spin component 1

 k-point   1 :       0.0000    0.0000    0.0000
  band No.  band energies     occupation 
      1     -25.3029      1.00000
      2     -13.0351      1.00000
      3      -9.2308      1.00000
      4      -7.1454      1.00000
      5      -0.9724      0.00000
      6       0.5032      0.00000
      7       0.7540      0.00000

 spin component 2

 k-point   1 :       0.0000    0.0000    0.0000
  band No.  band energies     occupation 
      1     -25.3030      1.00000
      2     -13.0352      1.00000
      3      -9.2308      1.00000
      4      -7.1454      1.00000
      5      -0.9694      0.00000
      6       0.4720      0.00000
      7       0.7556      0.00000


--------------------------------------------------------------------------------------------------------


 soft charge-density along one line, spin component           1
         0         1         2         3         4         5         6         7         8         9
 total charge-density along one line
 
 soft charge-density along one line, spin component           2
         0         1         2         3         4         5         6         7         8         9
 total charge-density along one line
 
 pseudopotential strength for first ion, spin component:           1
 -2.384  -0.017   0.002  -0.002   0.000
 -0.017   0.049   0.002  -0.002   0.000
  0.002   0.002  -0.318  -0.005   0.000
 -0.002  -0.002  -0.005  -0.320   0.000
  0.000   0.000   0.000   0.000  -0.324
 pseudopotential strength for first ion, spin component:           2
 -2.384  -0.017   0.002  -0.002   0.000
 -0.017   0.049   0.002  -0.002   0.000
  0.002   0.002  -0.318  -0.005   0.000
 -0.002  -0.002  -0.005  -0.320   0.000
  0.000   0.000   0.000   0.000  -0.324
 total augmentation occupancy for first ion, spin component:           1
  1.678  -0.708  -0.362   0.264   0.000
 -0.708   0.486   0.178  -0.140   0.000
 -0.362   0.178   0.088  -0.050   0.000
  0.264  -0.140  -0.050   0.064   0.000
  0.000   0.000   0.000   0.000   0.038
 total augmentation occupancy for first ion, spin component:           2
  0.000   0.000   0.000   0.000   0.000
  0.000   0.000   0.000   0.000   0.000
  0.000   0.000   0.000   0.000   0.000
  0.000   0.000   0.000   0.000   0.000
  0.000   0.000   0.000   0.000   0.000


------------------------ aborting loop because EDIFF is reached ----------------------------------------


    CHARGE:  cpu time    0.45: real time    0.57
    FORLOC:  cpu time    0.13: real time    0.18
    FORNL :  cpu time    0.15: real time    0.15
    STRESS:  cpu time    0.53: real time    0.79
    FORHAR:  cpu time    0.43: real time    0.43
    MIXING:  cpu time    0.15: real time    0.15

  FORCE on cell =-STRESS in cart. coord.  units (eV):
  Direction    XX          YY          ZZ          XY          YZ          ZX
  --------------------------------------------------------------------------------------
  Alpha Z     0.22422     0.22422     0.22422
  Ewald     -43.78456    77.13314    24.16099     0.00000     0.00000     0.00000
  Hartree   139.36677   160.55441   151.59402     0.00000     0.00000     0.00000
  E(xc)     -36.39830   -35.90550   -36.09816     0.00000     0.00000     0.00000
  Local    -206.64641  -312.72820  -265.80048     0.00000     0.00000     0.00000
  n-local   -31.87365   -31.08242   -31.98345     0.00000     0.00000     0.00000
  augment     8.06269     5.72622     6.65858     0.00000     0.00000     0.00000
  Kinetic   168.61991   134.32410   149.12177     0.00000     0.00000     0.00000
  Fock        0.00000     0.00000     0.00000     0.00000     0.00000     0.00000
  -------------------------------------------------------------------------------------
  Total      -2.42933    -1.75403    -2.12252     0.00000     0.00000     0.00000
  in kB      -3.89221    -2.81027    -3.40065     0.00000     0.00000     0.00000
  external pressure =       -3.37 kB  Pullay stress =        0.00 kB


 VOLUME and BASIS-vectors are now :
 -----------------------------------------------------------------------------
  energy-cutoff  :      350.00
  volume of cell :     1000.00
      direct lattice vectors                 reciprocal lattice vectors
    10.000000000  0.000000000  0.000000000     0.100000000  0.000000000  0.000000000
     0.000000000 10.000000000  0.000000000     0.000000000  0.100000000  0.000000000
     0.000000000  0.000000000 10.000000000     0.000000000  0.000000000  0.100000000

  length of vectors
    10.000000000 10.000000000 10.000000000     0.100000000  0.100000000  0.100000000


 FORCES acting on ions
    electron-ion (+dipol)            ewald-force                    non-local-force                 convergence-correction
 -----------------------------------------------------------------------------------------------
   0.329E-13 -.714E+02 0.515E+02   0.640E-17 0.784E+02 -.565E+02   0.000E+00 -.676E+01 0.493E+01   -.895E-14 0.303E-03 -.126E-03
   0.339E-13 0.714E+02 0.515E+02   0.687E-17 -.784E+02 -.565E+02   0.000E+00 0.676E+01 0.493E+01   -.928E-14 -.303E-03 -.126E-03
   0.461E-12 0.209E-12 -.633E+02   -.487E-16 -.952E-14 0.113E+03   0.000E+00 0.000E+00 -.495E+02   -.112E-12 -.107E-12 0.613E-03
 -----------------------------------------------------------------------------------------------
   0.528E-12 0.119E-11 0.396E+02   -.355E-16 0.469E-14 0.142E-13   0.000E+00 0.888E-15 -.396E+02   -.130E-12 -.114E-12 0.361E-03
 
 
 POSITION                                       TOTAL-FORCE (eV/Angst)
 -----------------------------------------------------------------------------------
      5.00000      5.76324      4.70185         0.000000      0.205648     -0.100170
      5.00000      4.23676      4.70185         0.000000     -0.205648     -0.100170
      5.00000      5.00000      5.29815         0.000000      0.000000      0.200339
 -----------------------------------------------------------------------------------
    total drift:                                0.000000      0.000000     -0.012451


--------------------------------------------------------------------------------------------------------



  FREE ENERGIE OF THE ION-ELECTRON SYSTEM (eV)
  ---------------------------------------------------
  free  energy   TOTEN  =       -14.212538 eV

  energy  without entropy=      -14.212538  energy(sigma->0) =      -14.212538
 


--------------------------------------------------------------------------------------------------------


    POTLOK:  cpu time    3.54: real time    4.59


--------------------------------------------------------------------------------------------------------




--------------------------------------------------------------------------------------------------------


    WAVPRE:  cpu time    0.26: real time    0.31
    FEWALD:  cpu time    0.00: real time    0.00
    ORTHCH:  cpu time    0.03: real time    0.03
     LOOP+:  cpu time  106.70: real time  125.51


----------------------------------------- Iteration    2(   1)  ---------------------------------------


    POTLOK:  cpu time    3.63: real time    4.52
    SETDIJ:  cpu time    0.05: real time    0.05
     EDDAV:  cpu time    1.58: real time    2.04
       DOS:  cpu time    0.00: real time    0.00
    CHARGE:  cpu time    0.55: real time    0.59
    MIXING:  cpu time    0.21: real time    0.21
    --------------------------------------------
      LOOP:  cpu time    6.02: real time    7.41

 eigenvalue-minimisations  :    28
 total energy-change (2. order) : 0.4448537E-02  (-0.7863075E-01)
 number of electron       7.9999919 magnetization      -0.0000528
 augmentation part        0.6683549 magnetization      -0.0000136

 Broyden mixing:
  rms(total) = 0.34661E-01    rms(broyden)= 0.34554E-01
  rms(prec ) = 0.42416E-01
  weight for this iteration     100.00

 Free energy of the ion-electron system (eV)
  ---------------------------------------------------
  alpha Z        PSCENC =         0.22422278
  Ewald energy   TEWEN  =        54.36809190
  -1/2 Hartree   DENC   =      -449.97537375
  -exchange  EXHF       =         0.00000000
  -V(xc)+E(xc)   XCENC  =        34.00044178
  PAW double counting   =       334.69581534     -336.71310231
  entropy T*S    EENTRO =         0.00000000
  eigenvalues    EBANDS =      -107.74501044
  atomic energy  EATOM  =       456.93688444
  ---------------------------------------------------
  free energy    TOTEN  =       -14.20803028 eV

  energy without entropy =      -14.20803028  energy(sigma->0) =      -14.20803028


--------------------------------------------------------------------------------------------------------




----------------------------------------- Iteration    2(   2)  ---------------------------------------


    POTLOK:  cpu time    4.82: real time    5.93
    SETDIJ:  cpu time    0.06: real time    0.07
     EDDAV:  cpu time    2.27: real time    2.53
       DOS:  cpu time    0.00: real time    0.00
    CHARGE:  cpu time    0.57: real time    0.66
    MIXING:  cpu time    0.10: real time    0.14
    --------------------------------------------
      LOOP:  cpu time    7.83: real time    9.38

 eigenvalue-minimisations  :    42
 total energy-change (2. order) : 0.1246408E-02  (-0.2273277E-02)
 number of electron       7.9999918 magnetization      -0.0000269
 augmentation part        0.6713529 magnetization      -0.0000334

 Broyden mixing:
  rms(total) = 0.11649E-01    rms(broyden)= 0.11606E-01
  rms(prec ) = 0.13612E-01
  weight for this iteration     100.00

 eigenvalues of (default mixing * dielectric matrix)
  average eigenvalue GAMMA=   1.0920
  1.0920

 Free energy of the ion-electron system (eV)
  ---------------------------------------------------
  alpha Z        PSCENC =         0.22422278
  Ewald energy   TEWEN  =        54.36809190
  -1/2 Hartree   DENC   =      -449.17286978
  -exchange  EXHF       =         0.00000000
  -V(xc)+E(xc)   XCENC  =        33.95471483
  PAW double counting   =       332.05750007     -334.06266001
  entropy T*S    EENTRO =         0.00000000
  eigenvalues    EBANDS =      -108.51266810
  atomic energy  EATOM  =       456.93688444
  ---------------------------------------------------
  free energy    TOTEN  =       -14.20678387 eV

  energy without entropy =      -14.20678387  energy(sigma->0) =      -14.20678387


--------------------------------------------------------------------------------------------------------




----------------------------------------- Iteration    2(   3)  ---------------------------------------


    POTLOK:  cpu time    4.32: real time    5.15
    SETDIJ:  cpu time    0.06: real time    0.06
     EDDAV:  cpu time    1.84: real time    2.48
       DOS:  cpu time    0.00: real time    0.00
    CHARGE:  cpu time    0.50: real time    0.63
    MIXING:  cpu time    0.11: real time    0.12
    --------------------------------------------
      LOOP:  cpu time    6.84: real time    8.50

 eigenvalue-minimisations  :    35
 total energy-change (2. order) : 0.1321158E-03  (-0.3644935E-04)
 number of electron       7.9999918 magnetization      -0.0000026
 augmentation part        0.6715333 magnetization      -0.0000094

 Broyden mixing:
  rms(total) = 0.58910E-02    rms(broyden)= 0.58861E-02
  rms(prec ) = 0.67976E-02
  weight for this iteration     100.00

 eigenvalues of (default mixing * dielectric matrix)
  average eigenvalue GAMMA=   1.5411
  1.0621  2.0200

 Free energy of the ion-electron system (eV)
  ---------------------------------------------------
  alpha Z        PSCENC =         0.22422278
  Ewald energy   TEWEN  =        54.36809190
  -1/2 Hartree   DENC   =      -449.07821096
  -exchange  EXHF       =         0.00000000
  -V(xc)+E(xc)   XCENC  =        33.94910554
  PAW double counting   =       331.12437807     -333.12483009
  entropy T*S    EENTRO =         0.00000000
  eigenvalues    EBANDS =      -108.60629342
  atomic energy  EATOM  =       456.93688444
  ---------------------------------------------------
  free energy    TOTEN  =       -14.20665175 eV

  energy without entropy =      -14.20665175  energy(sigma->0) =      -14.20665175


--------------------------------------------------------------------------------------------------------




----------------------------------------- Iteration    2(   4)  ---------------------------------------


    POTLOK:  cpu time    4.68: real time    5.23
    SETDIJ:  cpu time    0.06: real time    0.07
     EDDAV:  cpu time    1.99: real time    2.11
       DOS:  cpu time    0.00: real time    0.00
    --------------------------------------------
      LOOP:  cpu time    6.73: real time    7.49

 eigenvalue-minimisations  :    42
 total energy-change (2. order) :-0.3041332E-04  (-0.2185331E-04)
 number of electron       7.9999918 magnetization      -0.0000026
 augmentation part        0.6715333 magnetization      -0.0000094

 Free energy of the ion-electron system (eV)
  ---------------------------------------------------
  alpha Z        PSCENC =         0.22422278
  Ewald energy   TEWEN  =        54.36809190
  -1/2 Hartree   DENC   =      -449.04655204
  -exchange  EXHF       =         0.00000000
  -V(xc)+E(xc)   XCENC  =        33.94702574
  PAW double counting   =       330.26146283     -332.25730161
  entropy T*S    EENTRO =         0.00000000
  eigenvalues    EBANDS =      -108.64051621
  atomic energy  EATOM  =       456.93688444
  ---------------------------------------------------
  free energy    TOTEN  =       -14.20668216 eV

  energy without entropy =      -14.20668216  energy(sigma->0) =      -14.20668216


--------------------------------------------------------------------------------------------------------




 average (electrostatic) potential at core
  the test charge radii are     0.5201  0.7215
  (the norm of the test charge is              1.0000)
       1 -44.3926       2 -44.3926       3 -80.7321
 
 
 
 E-fermi :  -6.1400     XC(G=0):  -0.5364     alpha+bet : -0.1301


 spin component 1

 k-point   1 :       0.0000    0.0000    0.0000
  band No.  band energies     occupation 
      1     -25.1267      1.00000
      2     -12.8491      1.00000
      3      -9.2341      1.00000
      4      -7.1100      1.00000
      5      -1.0218      0.00000
      6       0.5109      0.00000
      7       0.7117      0.00000

 spin component 2

 k-point   1 :       0.0000    0.0000    0.0000
  band No.  band energies     occupation 
      1     -25.1268      1.00000
      2     -12.8491      1.00000
      3      -9.2345      1.00000
      4      -7.1102      1.00000
      5      -1.0236      0.00000
      6       0.5116      0.00000
      7       0.7094      0.00000


--------------------------------------------------------------------------------------------------------


 soft charge-density along one line, spin component           1
         0         1         2         3         4         5         6         7         8         9
 total charge-density along one line
 
 soft charge-density along one line, spin component           2
         0         1         2         3         4         5         6         7         8         9
 total charge-density along one line
 
 pseudopotential strength for first ion, spin component:           1
 -2.382  -0.017   0.002  -0.002   0.000
 -0.017   0.049   0.002  -0.002   0.000
  0.002   0.002  -0.320  -0.004   0.000
 -0.002  -0.002  -0.004  -0.322   0.000
  0.000   0.000   0.000   0.000  -0.326
 pseudopotential strength for first ion, spin component:           2
 -2.382  -0.017   0.002  -0.002   0.000
 -0.017   0.049   0.002  -0.002   0.000
  0.002   0.002  -0.320  -0.004   0.000
 -0.002  -0.002  -0.004  -0.322   0.000
  0.000   0.000   0.000   0.000  -0.326
 total augmentation occupancy for first ion, spin component:           1
  1.627  -0.699  -0.334   0.246   0.000
 -0.699   0.474   0.168  -0.134   0.000
 -0.334   0.168   0.078  -0.045   0.000
  0.246  -0.134  -0.045   0.058   0.000
  0.000   0.000   0.000   0.000   0.035
 total augmentation occupancy for first ion, spin component:           2
  0.000   0.000   0.000   0.000   0.000
  0.000   0.000   0.000   0.000   0.000
  0.000   0.000   0.000   0.000   0.000
  0.000   0.000   0.000   0.000   0.000
  0.000   0.000   0.000   0.000   0.000


------------------------ aborting loop because EDIFF is reached ----------------------------------------


    CHARGE:  cpu time    0.53: real time    0.67
    FORLOC:  cpu time    0.13: real time    0.13
    FORNL :  cpu time    0.24: real time    0.24
    STRESS:  cpu time    0.82: real time    0.98
    FORHAR:  cpu time    0.60: real time    0.65
    MIXING:  cpu time    0.10: real time    0.10

  FORCE on cell =-STRESS in cart. coord.  units (eV):
  Direction    XX          YY          ZZ          XY          YZ          ZX
  --------------------------------------------------------------------------------------
  Alpha Z     0.22422     0.22422     0.22422
  Ewald     -43.79120    74.21998    23.93926     0.00000     0.00000     0.00000
  Hartree   138.46739   159.62457   150.93698     0.00000     0.00000     0.00000
  E(xc)     -36.26803   -35.77938   -35.96336     0.00000     0.00000     0.00000
  Local    -205.50224  -309.92987  -264.95108     0.00000     0.00000     0.00000
  n-local   -31.66263   -30.63920   -31.58651     0.00000     0.00000     0.00000
  augment     8.01251     5.71144     6.59102     0.00000     0.00000     0.00000
  Kinetic   168.07983   133.88861   148.12599     0.00000     0.00000     0.00000
  Fock        0.00000     0.00000     0.00000     0.00000     0.00000     0.00000
  -------------------------------------------------------------------------------------
  Total      -2.44015    -2.67963    -2.68347     0.00000     0.00000     0.00000
  in kB      -3.90955    -4.29324    -4.29939     0.00000     0.00000     0.00000
  external pressure =       -4.17 kB  Pullay stress =        0.00 kB


 VOLUME and BASIS-vectors are now :
 -----------------------------------------------------------------------------
  energy-cutoff  :      350.00
  volume of cell :     1000.00
      direct lattice vectors                 reciprocal lattice vectors
    10.000000000  0.000000000  0.000000000     0.100000000  0.000000000  0.000000000
     0.000000000 10.000000000  0.000000000     0.000000000  0.100000000  0.000000000
     0.000000000  0.000000000 10.000000000     0.000000000  0.000000000  0.100000000

  length of vectors
    10.000000000 10.000000000 10.000000000     0.100000000  0.100000000  0.100000000


 FORCES acting on ions
    electron-ion (+dipol)            ewald-force                    non-local-force                 convergence-correction
 -----------------------------------------------------------------------------------------------
   0.309E-13 -.695E+02 0.506E+02   -.161E-16 0.755E+02 -.549E+02   0.258E-25 -.633E+01 0.466E+01   -.918E-14 -.439E-03 0.112E-02
   0.312E-13 0.695E+02 0.506E+02   0.108E-16 -.755E+02 -.549E+02   -.258E-25 0.633E+01 0.466E+01   -.909E-14 0.439E-03 0.112E-02
   0.460E-12 -.194E-12 -.616E+02   -.302E-16 -.680E-14 0.110E+03   0.000E+00 0.000E+00 -.490E+02   -.109E-12 0.118E-12 0.136E-01
 -----------------------------------------------------------------------------------------------
   0.522E-12 0.476E-13 0.397E+02   -.355E-16 -.680E-14 0.000E+00   0.000E+00 0.000E+00 -.397E+02   -.127E-12 0.143E-12 0.159E-01
 
 
 POSITION                                       TOTAL-FORCE (eV/Angst)
 -----------------------------------------------------------------------------------
      5.00000      5.77316      4.69701         0.000000     -0.396323      0.361033
      5.00000      4.22684      4.69701         0.000000      0.396323      0.361033
      5.00000      5.00000      5.30782         0.000000      0.000000     -0.722065
 -----------------------------------------------------------------------------------
    total drift:                                0.000000      0.000000     -0.018503


--------------------------------------------------------------------------------------------------------



  FREE ENERGIE OF THE ION-ELECTRON SYSTEM (eV)
  ---------------------------------------------------
  free  energy   TOTEN  =       -14.206682 eV

  energy  without entropy=      -14.206682  energy(sigma->0) =      -14.206682
 
 d Force =-0.5673501E-02[-0.183E-01, 0.698E-02]  d Energy =-0.5855668E-02 0.182E-03
 d Force = 0.3141904E+01[ 0.309E+01, 0.319E+01]  d Ewald  = 0.3141514E+01 0.390E-03


--------------------------------------------------------------------------------------------------------


    POTLOK:  cpu time    4.63: real time    5.69


--------------------------------------------------------------------------------------------------------


 Steepest descent step on ions:
 trial-energy change:    0.005856  1 .order    0.005674   -0.006985    0.018332
  (g-gl).g = 0.698E-02      g.g   = 0.698E-02  gl.gl    = 0.000E+00
 g(Force)  = 0.698E-02   g(Stress)= 0.000E+00 ortho     = 0.000E+00
 gamma     =   0.00000
 trial     =   1.00000
 opt step  =   0.27590  (harmonic =   0.27590) maximal distance =0.00273720
 next E    =   -14.213501   (d E  =  -0.00096)


--------------------------------------------------------------------------------------------------------


    WAVPRE:  cpu time    0.34: real time    0.40
    FEWALD:  cpu time    0.00: real time    0.00
    ORTHCH:  cpu time    0.09: real time    0.15
     LOOP+:  cpu time   34.97: real time   42.03


----------------------------------------- Iteration    3(   1)  ---------------------------------------


    POTLOK:  cpu time    5.04: real time    5.92
    SETDIJ:  cpu time    0.06: real time    0.06
     EDDAV:  cpu time    1.64: real time    1.97
       DOS:  cpu time    0.00: real time    0.00
    CHARGE:  cpu time    0.51: real time    0.64
    MIXING:  cpu time    0.09: real time    0.09
    --------------------------------------------
      LOOP:  cpu time    7.34: real time    8.68

 eigenvalue-minimisations  :    28
 total energy-change (2. order) :-0.7487493E-02  (-0.4105554E-01)
 number of electron       7.9999925 magnetization      -0.0000001
 augmentation part        0.6792210 magnetization      -0.0000029

 Broyden mixing:
  rms(total) = 0.24266E-01    rms(broyden)= 0.24184E-01
  rms(prec ) = 0.29686E-01
  weight for this iteration     100.00

 Free energy of the ion-electron system (eV)
  ---------------------------------------------------
  alpha Z        PSCENC =         0.22422278
  Ewald energy   TEWEN  =        56.63261011
  -1/2 Hartree   DENC   =      -450.14505976
  -exchange  EXHF       =         0.00000000
  -V(xc)+E(xc)   XCENC  =        33.99804959
  PAW double counting   =       330.10206426     -332.09664117
  entropy T*S    EENTRO =         0.00000000
  eigenvalues    EBANDS =      -109.86626948
  atomic energy  EATOM  =       456.93688444
  ---------------------------------------------------
  free energy    TOTEN  =       -14.21413924 eV

  energy without entropy =      -14.21413924  energy(sigma->0) =      -14.21413924


--------------------------------------------------------------------------------------------------------




----------------------------------------- Iteration    3(   2)  ---------------------------------------


    POTLOK:  cpu time    4.69: real time    6.36
    SETDIJ:  cpu time    0.07: real time    0.07
     EDDAV:  cpu time    2.46: real time    2.88
       DOS:  cpu time    0.00: real time    0.00
    CHARGE:  cpu time    0.51: real time    0.66
    MIXING:  cpu time    0.11: real time    0.13
    --------------------------------------------
      LOOP:  cpu time    7.83: real time   10.11

 eigenvalue-minimisations  :    42
 total energy-change (2. order) : 0.5755034E-03  (-0.1119283E-02)
 number of electron       7.9999925 magnetization       0.0000000
 augmentation part        0.6773906 magnetization       0.0000109

 Broyden mixing:
  rms(total) = 0.84678E-02    rms(broyden)= 0.84388E-02
  rms(prec ) = 0.99247E-02
  weight for this iteration     100.00

 eigenvalues of (default mixing * dielectric matrix)
  average eigenvalue GAMMA=   1.1339
  1.1339

 Free energy of the ion-electron system (eV)
  ---------------------------------------------------
  alpha Z        PSCENC =         0.22422278
  Ewald energy   TEWEN  =        56.63261011
  -1/2 Hartree   DENC   =      -450.70487293
  -exchange  EXHF       =         0.00000000
  -V(xc)+E(xc)   XCENC  =        34.02997595
  PAW double counting   =       331.93736869     -333.94034101
  entropy T*S    EENTRO =         0.00000000
  eigenvalues    EBANDS =      -109.32941177
  atomic energy  EATOM  =       456.93688444
  ---------------------------------------------------
  free energy    TOTEN  =       -14.21356374 eV

  energy without entropy =      -14.21356374  energy(sigma->0) =      -14.21356374


--------------------------------------------------------------------------------------------------------




----------------------------------------- Iteration    3(   3)  ---------------------------------------


    POTLOK:  cpu time    4.29: real time    5.80
    SETDIJ:  cpu time    0.05: real time    0.05
     EDDAV:  cpu time    2.06: real time    2.67
       DOS:  cpu time    0.00: real time    0.00
    --------------------------------------------
      LOOP:  cpu time    6.40: real time    8.67

 eigenvalue-minimisations  :    42
 total energy-change (2. order) : 0.6778446E-04  (-0.2611481E-04)
 number of electron       7.9999925 magnetization       0.0000000
 augmentation part        0.6773906 magnetization       0.0000109

 Free energy of the ion-electron system (eV)
  ---------------------------------------------------
  alpha Z        PSCENC =         0.22422278
  Ewald energy   TEWEN  =        56.63261011
  -1/2 Hartree   DENC   =      -450.79905407
  -exchange  EXHF       =         0.00000000
  -V(xc)+E(xc)   XCENC  =        34.03547229
  PAW double counting   =       332.65437272     -334.66120632
  entropy T*S    EENTRO =         0.00000000
  eigenvalues    EBANDS =      -109.23679789
  atomic energy  EATOM  =       456.93688444
  ---------------------------------------------------
  free energy    TOTEN  =       -14.21349596 eV

  energy without entropy =      -14.21349596  energy(sigma->0) =      -14.21349596


--------------------------------------------------------------------------------------------------------




 average (electrostatic) potential at core
  the test charge radii are     0.5201  0.7215
  (the norm of the test charge is              1.0000)
       1 -44.5616       2 -44.5616       3 -80.7440
 
 
 
 E-fermi :  -6.1690     XC(G=0):  -0.5721     alpha+bet : -0.1301


 spin component 1

 k-point   1 :       0.0000    0.0000    0.0000
  band No.  band energies     occupation 
      1     -25.2612      1.00000
      2     -12.9909      1.00000
      3      -9.2308      1.00000
      4      -7.1355      1.00000
      5      -1.0003      0.00000
      6       0.4995      0.00000
      7       0.7271      0.00000

 spin component 2

 k-point   1 :       0.0000    0.0000    0.0000
  band No.  band energies     occupation 
      1     -25.2612      1.00000
      2     -12.9909      1.00000
      3      -9.2307      1.00000
      4      -7.1356      1.00000
      5      -1.0006      0.00000
      6       0.5008      0.00000
      7       0.7271      0.00000


--------------------------------------------------------------------------------------------------------


 soft charge-density along one line, spin component           1
         0         1         2         3         4         5         6         7         8         9
 total charge-density along one line
 
 soft charge-density along one line, spin component           2
         0         1         2         3         4         5         6         7         8         9
 total charge-density along one line
 
 pseudopotential strength for first ion, spin component:           1
 -2.383  -0.017   0.002  -0.002   0.000
 -0.017   0.049   0.002  -0.002   0.000
  0.002   0.002  -0.319  -0.005   0.000
 -0.002  -0.002  -0.005  -0.321   0.000
  0.000   0.000   0.000   0.000  -0.325
 pseudopotential strength for first ion, spin component:           2
 -2.383  -0.017   0.002  -0.002   0.000
 -0.017   0.049   0.002  -0.002   0.000
  0.002   0.002  -0.319  -0.005   0.000
 -0.002  -0.002  -0.005  -0.321   0.000
  0.000   0.000   0.000   0.000  -0.325
 total augmentation occupancy for first ion, spin component:           1
  1.664  -0.706  -0.355   0.259   0.000
 -0.706   0.483   0.175  -0.138   0.000
 -0.355   0.175   0.085  -0.049   0.000
  0.259  -0.138  -0.049   0.062   0.000
  0.000   0.000   0.000   0.000   0.037
 total augmentation occupancy for first ion, spin component:           2
  0.000   0.000   0.000   0.000   0.000
  0.000   0.000   0.000   0.000   0.000
  0.000   0.000   0.000   0.000   0.000
  0.000   0.000   0.000   0.000   0.000
  0.000   0.000   0.000   0.000   0.000


------------------------ aborting loop because EDIFF is reached ----------------------------------------


    CHARGE:  cpu time    0.45: real time    0.57
    FORLOC:  cpu time    0.13: real time    0.31
    FORNL :  cpu time    0.22: real time    0.43
    STRESS:  cpu time    0.82: real time    0.97
    FORHAR:  cpu time    0.54: real time    0.61
    MIXING:  cpu time    0.10: real time    0.10

  FORCE on cell =-STRESS in cart. coord.  units (eV):
  Direction    XX          YY          ZZ          XY          YZ          ZX
  --------------------------------------------------------------------------------------
  Alpha Z     0.22422     0.22422     0.22422
  Ewald     -43.78638    76.31681    24.10215     0.00000     0.00000     0.00000
  Hartree   139.10540   160.29934   151.40661     0.00000     0.00000     0.00000
  E(xc)     -36.35909   -35.86812   -36.05818     0.00000     0.00000     0.00000
  Local    -206.31496  -311.97180  -265.56614     0.00000     0.00000     0.00000
  n-local   -31.81017   -30.95358   -31.87118     0.00000     0.00000     0.00000
  augment     8.04939     5.71990     6.63857     0.00000     0.00000     0.00000
  Kinetic   168.48150   134.18618   148.84822     0.00000     0.00000     0.00000
  Fock        0.00000     0.00000     0.00000     0.00000     0.00000     0.00000
  -------------------------------------------------------------------------------------
  Total      -2.41009    -2.04706    -2.27572     0.00000     0.00000     0.00000
  in kB      -3.86140    -3.27975    -3.64611     0.00000     0.00000     0.00000
  external pressure =       -3.60 kB  Pullay stress =        0.00 kB


 VOLUME and BASIS-vectors are now :
 -----------------------------------------------------------------------------
  energy-cutoff  :      350.00
  volume of cell :     1000.00
      direct lattice vectors                 reciprocal lattice vectors
    10.000000000  0.000000000  0.000000000     0.100000000  0.000000000  0.000000000
     0.000000000 10.000000000  0.000000000     0.000000000  0.100000000  0.000000000
     0.000000000  0.000000000 10.000000000     0.000000000  0.000000000  0.100000000

  length of vectors
    10.000000000 10.000000000 10.000000000     0.100000000  0.100000000  0.100000000


 FORCES acting on ions
    electron-ion (+dipol)            ewald-force                    non-local-force                 convergence-correction
 -----------------------------------------------------------------------------------------------
   0.323E-13 -.709E+02 0.512E+02   0.436E-17 0.776E+02 -.561E+02   0.000E+00 -.664E+01 0.485E+01   -.101E-13 0.688E-02 0.426E-02
   0.328E-13 0.709E+02 0.512E+02   0.580E-17 -.776E+02 -.561E+02   0.000E+00 0.664E+01 0.485E+01   -.104E-13 -.688E-02 0.426E-02
   0.456E-12 0.221E-12 -.630E+02   -.456E-16 0.212E-14 0.112E+03   0.000E+00 0.000E+00 -.494E+02   -.120E-12 -.843E-13 0.222E+00
 -----------------------------------------------------------------------------------------------
   0.521E-12 0.420E-12 0.395E+02   -.355E-16 0.212E-14 0.000E+00   0.000E+00 0.000E+00 -.397E+02   -.141E-12 -.695E-13 0.231E+00
 
 
 POSITION                                       TOTAL-FORCE (eV/Angst)
 -----------------------------------------------------------------------------------
      5.00000      5.76598      4.70051         0.000000      0.029683      0.035711
      5.00000      4.23402      4.70051         0.000000     -0.029683      0.035711
      5.00000      5.00000      5.30082         0.000000      0.000000     -0.071421
 -----------------------------------------------------------------------------------
    total drift:                                0.000000      0.000000     -0.018963


--------------------------------------------------------------------------------------------------------



  FREE ENERGIE OF THE ION-ELECTRON SYSTEM (eV)
  ---------------------------------------------------
  free  energy   TOTEN  =       -14.213496 eV

  energy  without entropy=      -14.213496  energy(sigma->0) =      -14.213496
 
 d Force = 0.6798690E-02[ 0.323E-03, 0.133E-01]  d Energy = 0.6813792E-02-0.151E-04
 d Force =-0.2264665E+01[-0.229E+01,-0.224E+01]  d Ewald  =-0.2264518E+01-0.147E-03


--------------------------------------------------------------------------------------------------------


    POTLOK:  cpu time    4.17: real time    5.32


--------------------------------------------------------------------------------------------------------




--------------------------------------------------------------------------------------------------------


  
 reached required accuracy - stopping structural energy minimisation
 writing wavefunctions
     LOOP+:  cpu time   28.06: real time   36.54
    4ORBIT:  cpu time    0.00: real time    0.00

 total amount of memory used by VASP on root node   147554. kBytes
========================================================================

   base      :      30000. kBytes
   nonl-proj :       2603. kBytes
   fftplans  :      30736. kBytes
   grid      :      80879. kBytes
   one-center:         18. kBytes
   wavefun   :       3318. kBytes
 
  
  
 General timing and accounting informations for this job:
 ========================================================
  
                  Total CPU time used (sec):      174.879
                            User time (sec):      172.285
                          System time (sec):        2.595
                         Elapsed time (sec):      211.188
  
                   Maximum memory used (kb):           0.
                   Average memory used (kb):           0.
  
                          Minor page faults:       608989
                          Major page faults:           38
                 Voluntary context switches:         8400
