<?xml version="1.0" encoding="ISO-8859-1"?>
<modeling>
 <generator>
  <i name="program" type="string">vasp </i>
  <i name="version" type="string">5.2.12  </i>
  <i name="subversion" type="string">11Nov11 complex                                                      parallel </i>
  <i name="platform" type="string">LinuxIFC </i>
  <i name="date" type="string">2012 10 30 </i>
  <i name="time" type="string">21:04:29 </i>
 </generator>
 <incar>
  <i type="string" name="PREC">normal</i>
  <i type="int" name="ISPIN">     2</i>
  <i type="int" name="IBRION">     2</i>
  <i type="int" name="NSW">    10</i>
  <i name="ENCUT">    350.00000000</i>
  <i type="int" name="NBANDS">     7</i>
  <i type="int" name="ISMEAR">     0</i>
 </incar>
 <kpoints>
  <generation param="Monkhorst-Pack">
   <v type="int" name="divisions">       1        1        1 </v>
   <v name="usershift">      0.00000000       0.00000000       0.00000000 </v>
   <v name="genvec1">      1.00000000       0.00000000       0.00000000 </v>
   <v name="genvec2">      0.00000000       1.00000000       0.00000000 </v>
   <v name="genvec3">      0.00000000       0.00000000       1.00000000 </v>
   <v name="shift">      0.00000000       0.00000000       0.00000000 </v>
  </generation>
  <varray name="kpointlist" >
   <v>       0.00000000       0.00000000       0.00000000 </v>
  </varray>
  <varray name="weights" >
   <v>       1.00000000 </v>
  </varray>
 </kpoints>
 <parameters>
  <separator name="general" >
   <i type="string" name="SYSTEM">unknown system</i>
   <i type="logical" name="LCOMPAT"> F  </i>
  </separator>
  <separator name="electronic" >
   <i type="string" name="PREC">normal</i>
   <i name="ENMAX">    350.00000000</i>
   <i name="ENAUG">    605.39200000</i>
   <i name="EDIFF">      0.00010000</i>
   <i type="int" name="IALGO">    38</i>
   <i type="int" name="IWAVPR">    11</i>
   <i type="int" name="NBANDS">     7</i>
   <i name="NELECT">      8.00000000</i>
   <i type="int" name="TURBO">     0</i>
   <i type="int" name="IRESTART">     0</i>
   <i type="int" name="NREBOOT">     0</i>
   <i type="int" name="NMIN">     0</i>
   <i name="EREF">      0.00000000</i>
   <separator name="electronic smearing" >
    <i type="int" name="ISMEAR">     0</i>
    <i name="SIGMA">      0.20000000</i>
    <i name="KSPACING">      0.50000000</i>
    <i type="logical" name="KGAMMA"> T  </i>
   </separator>
   <separator name="electronic projectors" >
    <i type="logical" name="LREAL"> F  </i>
    <v name="ROPT">      0.00000000      0.00000000</v>
    <i type="int" name="LMAXPAW">  -100</i>
    <i type="int" name="LMAXMIX">     2</i>
    <i type="logical" name="NLSPLINE"> F  </i>
   </separator>
   <separator name="electronic startup" >
    <i type="int" name="ISTART">     0</i>
    <i type="int" name="ICHARG">     2</i>
    <i type="int" name="INIWAV">     1</i>
   </separator>
   <separator name="electronic spin" >
    <i type="int" name="ISPIN">     2</i>
    <i type="logical" name="LNONCOLLINEAR"> F  </i>
    <v name="MAGMOM">      1.00000000      1.00000000      1.00000000</v>
    <i name="NUPDOWN">     -1.00000000</i>
    <i type="logical" name="LSORBIT"> F  </i>
    <v name="SAXIS">      0.00000000      0.00000000      1.00000000</v>
    <i type="logical" name="LSPIRAL"> F  </i>
    <v name="QSPIRAL">      0.00000000      0.00000000      0.00000000</v>
    <i type="logical" name="LZEROZ"> F  </i>
   </separator>
   <separator name="electronic exchange-correlation" >
    <i type="logical" name="LASPH"> F  </i>
    <i type="logical" name="LMETAGGA"> F  </i>
   </separator>
   <separator name="electronic convergence" >
    <i type="int" name="NELM">    60</i>
    <i type="int" name="NELMDL">    -5</i>
    <i type="int" name="NELMIN">     2</i>
    <i name="ENINI">    350.00000000</i>
    <separator name="electronic convergence detail" >
     <i type="logical" name="LDIAG"> T  </i>
     <i type="logical" name="LSUBROT"> T  </i>
     <i name="WEIMIN">      0.00100000</i>
     <i name="EBREAK">      0.00000357</i>
     <i name="DEPER">      0.30000000</i>
     <i type="int" name="NRMM">     4</i>
     <i name="TIME">      0.40000000</i>
    </separator>
   </separator>
   <separator name="electronic mixer" >
    <i name="AMIX">      0.40000000</i>
    <i name="BMIX">      1.00000000</i>
    <i name="AMIN">      0.10000000</i>
    <i name="AMIX_MAG">      1.60000000</i>
    <i name="BMIX_MAG">      1.00000000</i>
    <separator name="electronic mixer details" >
     <i type="int" name="IMIX">     4</i>
     <i type="int" name="MAXMIX">   -45</i>
     <i name="WC">    100.00000000</i>
     <i type="int" name="INIMIX">     1</i>
     <i type="int" name="MIXPRE">     1</i>
     <i type="int" name="MREMOVE">     5</i>
    </separator>
   </separator>
   <separator name="electronic dipolcorrection" >
    <i type="logical" name="LDIPOL"> F  </i>
    <i type="logical" name="LMONO"> F  </i>
    <i type="int" name="IDIPOL">     0</i>
    <i name="EPSILON">      1.00000000</i>
    <v name="DIPOL">   -100.00000000   -100.00000000   -100.00000000</v>
    <i name="EFIELD">      0.00000000</i>
   </separator>
  </separator>
  <separator name="grids" >
   <i type="int" name="NGX">    48</i>
   <i type="int" name="NGY">    48</i>
   <i type="int" name="NGZ">    48</i>
   <i type="int" name="NGXF">    96</i>
   <i type="int" name="NGYF">    96</i>
   <i type="int" name="NGZF">    96</i>
   <i type="logical" name="ADDGRID"> F  </i>
  </separator>
  <separator name="ionic" >
   <i type="int" name="NSW">    10</i>
   <i type="int" name="IBRION">     2</i>
   <i type="int" name="ISIF">     2</i>
   <i name="PSTRESS">      0.00000000</i>
   <i name="EDIFFG">      0.00100000</i>
   <i type="int" name="NFREE">     1</i>
   <i name="POTIM">      0.50000000</i>
   <i name="SMASS">     -3.00000000</i>
   <i name="SCALEE">      1.00000000</i>
  </separator>
  <separator name="ionic md" >
   <i name="TEBEG">      0.00010000</i>
   <i name="TEEND">      0.00010000</i>
   <i type="int" name="NBLOCK">     1</i>
   <i type="int" name="KBLOCK">    10</i>
   <i type="int" name="NPACO">   256</i>
   <i name="APACO">     16.00000000</i>
  </separator>
  <separator name="symmetry" >
   <i type="int" name="ISYM">     2</i>
   <i name="SYMPREC">      0.00001000</i>
  </separator>
  <separator name="dos" >
   <i type="logical" name="LORBIT"> F  </i>
   <v name="RWIGS">     -1.00000000     -1.00000000</v>
   <i type="int" name="NEDOS">   301</i>
   <i name="EMIN">     10.00000000</i>
   <i name="EMAX">    -10.00000000</i>
   <i name="EFERMI">      0.00000000</i>
  </separator>
  <separator name="writing" >
   <i type="int" name="NWRITE">     2</i>
   <i type="logical" name="LWAVE"> T  </i>
   <i type="logical" name="LCHARG"> T  </i>
   <i type="logical" name="LPARD"> F  </i>
   <i type="logical" name="LVTOT"> F  </i>
   <i type="logical" name="LVHAR"> F  </i>
   <i type="logical" name="LELF"> F  </i>
   <i type="logical" name="LOPTICS"> F  </i>
   <v name="STM">      0.00000000      0.00000000      0.00000000      0.00000000      0.00000000      0.00000000      0.00000000</v>
  </separator>
  <separator name="performance" >
   <i type="int" name="NPAR">     1</i>
   <i type="int" name="NSIM">     4</i>
   <i type="int" name="NBLK">    -1</i>
   <i type="logical" name="LPLANE"> T  </i>
   <i type="logical" name="LSCALAPACK"> F  </i>
   <i type="logical" name="LSCAAWARE"> F  </i>
   <i type="logical" name="LSCALU"> F  </i>
   <i type="logical" name="LASYNC"> F  </i>
   <i type="logical" name="LORBITALREAL"> F  </i>
  </separator>
  <separator name="miscellaneous" >
   <i type="int" name="IDIOT">     3</i>
   <i type="logical" name="LMUSIC"> F  </i>
   <v name="POMASS">      1.00000000     16.00000000</v>
   <v name="DARWINR">      0.00000000      0.00000000</v>
   <v name="DARWINV">      1.00000000      1.00000000</v>
   <i type="logical" name="LCORR"> T  </i>
  </separator>
  <i type="logical" name="GGA_COMPAT"> T  </i>
  <i type="logical" name="LBERRY"> F  </i>
  <i type="int" name="ICORELEVEL">     0</i>
  <i type="logical" name="LDAU"> F  </i>
  <i type="int" name="I_CONSTRAINED_M">     0</i>
  <separator name="electronic exchange-correlation" >
   <i type="string" name="GGA">--</i>
   <i type="int" name="VOSKOWN">     0</i>
   <i type="logical" name="LHFCALC"> F  </i>
   <i type="string" name="PRECFOCK"></i>
   <i type="logical" name="LHFONE"> F  </i>
   <i type="logical" name="LRHFCALC"> F  </i>
   <i type="logical" name="LTHOMAS"> F  </i>
   <i type="logical" name="LMODELHF"> F  </i>
   <i name="ENCUT4O">     -1.00000000</i>
   <i type="int" name="EXXOEP">     0</i>
   <i type="int" name="FOURORBIT">     0</i>
   <i name="AEXX">      0.00000000</i>
   <i name="HFALPHA">      0.00000000</i>
   <i name="ALDAX">      1.00000000</i>
   <i name="AGGAX">      1.00000000</i>
   <i name="ALDAC">      1.00000000</i>
   <i name="AGGAC">      1.00000000</i>
   <i type="int" name="NKREDX">     1</i>
   <i type="int" name="NKREDY">     1</i>
   <i type="int" name="NKREDZ">     1</i>
   <i type="logical" name="SHIFTRED"> F  </i>
   <i type="logical" name="ODDONLY"> F  </i>
   <i type="logical" name="EVENONLY"> F  </i>
   <i type="int" name="LMAXFOCK">     0</i>
   <i type="int" name="NMAXFOCKAE">     0</i>
   <i type="logical" name="LFOCKAEDFT"> F  </i>
   <i name="HFSCREEN">      0.00000000</i>
   <i name="HFSCREENC">      0.00000000</i>
  </separator>
  <separator name="vdW DFT" >
   <i type="logical" name="LUSE_VDW"> F  </i>
   <i name="Zab_VDW">     -0.84910000</i>
   <i name="PARAM1">      0.12340000</i>
   <i name="PARAM2">      1.00000000</i>
   <i name="PARAM3">      0.00000000</i>
  </separator>
  <separator name="model GW" >
   <i type="int" name="MODEL_GW">     0</i>
   <i name="MODEL_EPS0">    200.00000000</i>
   <i name="MODEL_ALPHA">      1.00000000</i>
  </separator>
  <separator name="linear response parameters" >
   <i type="logical" name="LEPSILON"> F  </i>
   <i type="logical" name="LRPA"> F  </i>
   <i type="logical" name="LNABLA"> F  </i>
   <i type="logical" name="LVEL"> F  </i>
   <i type="int" name="KINTER">     0</i>
   <i name="CSHIFT">      0.10000000</i>
   <i name="OMEGAMAX">     -1.00000000</i>
  </separator>
  <separator name="orbital magnetization" >
   <i type="logical" name="NUCIND"> F  </i>
   <v name="MAGPOS">      0.00000000      0.00000000      0.00000000</v>
   <i type="logical" name="LNICSALL"> T  </i>
   <i type="logical" name="ORBITALMAG"> F  </i>
   <i type="logical" name="LMAGBLOCH"> F  </i>
   <i type="logical" name="LCHIMAG"> F  </i>
   <i type="logical" name="LGAUGE"> T  </i>
   <i type="int" name="MAGATOM">     0</i>
   <v name="MAGDIPOL">      0.00000000      0.00000000      0.00000000</v>
   <v name="AVECCONST">      0.00000000      0.00000000      0.00000000</v>
  </separator>
  <separator name="response functions" >
   <i type="logical" name="LADDER"> F  </i>
   <i type="logical" name="LHARTREE"> T  </i>
   <i type="int" name="IBSE">     0</i>
   <i type="logical" name="LTCTE"> F  </i>
   <i type="logical" name="LTETE"> F  </i>
   <i type="logical" name="LFXCEPS"> F  </i>
   <i type="logical" name="L2ORDER"> F  </i>
   <i type="logical" name="LUSEW"> F  </i>
   <i name="ENCUTGW">     -2.00000000</i>
   <i name="ENCUTGWSOFT">     -2.00000000</i>
   <i name="ENCUTLF">     -1.00000000</i>
   <i type="int" name="LMAXMP2">    -1</i>
   <i name="SCISSOR">      0.00000000</i>
   <i type="int" name="NOMEGA">     0</i>
   <i type="int" name="NOMEGAR">     0</i>
   <i type="int" name="NBANDSGW">    -1</i>
   <i type="int" name="NBANDSO">    -1</i>
   <i type="int" name="NBANDSV">    -1</i>
   <i name="OPTEMAX">      0.00000000</i>
   <i type="int" name="NELM">     1</i>
   <i type="int" name="DIM">     3</i>
   <i type="int" name="ANTIRES">     0</i>
   <i name="OMEGAMAX">    -30.00000000</i>
   <i name="OMEGATL">   -200.00000000</i>
   <i type="int" name="OMEGAGRID">     0</i>
   <i name="CSHIFT">     -0.10000000</i>
   <i type="logical" name="SELFENERGY"> F  </i>
   <i type="logical" name="LSPECTRAL"> F  </i>
   <i type="logical" name="ODDONLYGW"> F  </i>
   <i type="logical" name="EVENONLYGW"> F  </i>
   <i type="int" name="NKREDLFX">     1</i>
   <i type="int" name="NKREDLFY">     1</i>
   <i type="int" name="NKREDLFZ">     1</i>
   <i type="int" name="MAXMEM">  1800</i>
   <i type="int" name="TELESCOPE">     0</i>
  </separator>
 </parameters>
 <atominfo>
  <atoms>       3 </atoms>
  <types>       2 </types>
  <array name="atoms" >
   <dimension dim="1">ion</dimension>
   <field type="string">element</field>
   <field type="int">atomtype</field>
   <set>
    <rc><c>H </c><c>   1</c></rc>
    <rc><c>H </c><c>   1</c></rc>
    <rc><c>O </c><c>   2</c></rc>
   </set>
  </array>
  <array name="atomtypes" >
   <dimension dim="1">type</dimension>
   <field type="int">atomspertype</field>
   <field type="string">element</field>
   <field>mass</field>
   <field>valence</field>
   <field type="string">pseudopotential</field>
   <set>
    <rc><c>   2</c><c>H </c><c>      1.00000000</c><c>      1.00000000</c><c> PAW_PBE H 15Jun2001                    </c></rc>
    <rc><c>   1</c><c>O </c><c>     16.00000000</c><c>      6.00000000</c><c> PAW_PBE O 08Apr2002                    </c></rc>
   </set>
  </array>
 </atominfo>
 <structure name="initialpos" >
  <crystal>
   <varray name="basis" >
    <v>      10.00000000       0.00000000       0.00000000 </v>
    <v>       0.00000000      10.00000000       0.00000000 </v>
    <v>       0.00000000       0.00000000      10.00000000 </v>
   </varray>
   <i name="volume">   1000.00000000 </i>
   <varray name="rec_basis" >
    <v>       0.10000000       0.00000000       0.00000000 </v>
    <v>       0.00000000       0.10000000       0.00000000 </v>
    <v>       0.00000000       0.00000000       0.10000000 </v>
   </varray>
  </crystal>
  <varray name="positions" >
   <v>       0.50000000       0.57632390       0.47018455 </v>
   <v>       0.50000000       0.42367610       0.47018455 </v>
   <v>       0.50000000       0.50000000       0.52981545 </v>
  </varray>
 </structure>
 <calculation>
  <scstep>
   <time name="dav">    2.02    2.20</time>
   <time name="total">    5.87    6.39</time>
   <energy>
    <i name="alphaZ">      0.22422278 </i>
    <i name="ewald">     57.50960611 </i>
    <i name="hartreedc">   -417.15863829 </i>
    <i name="XCdc">     33.05787041 </i>
    <i name="pawpsdc">    246.88637530 </i>
    <i name="pawaedc">   -248.74825379 </i>
    <i name="eentropy">     -0.06192401 </i>
    <i name="bandstr">    -81.63847989 </i>
    <i name="atom">    456.93688444 </i>
    <i name="e_fr_energy">     47.00766306 </i>
    <i name="e_wo_entrp">     47.06958707 </i>
    <i name="e_0_energy">     47.03862507 </i>
   </energy>
  </scstep>
  <scstep>
   <time name="dav">    2.09    2.71</time>
   <time name="total">    2.09    2.80</time>
   <energy>
    <i name="e_fr_energy">     -7.20311973 </i>
    <i name="e_wo_entrp">     -7.20311973 </i>
    <i name="e_0_energy">     -7.20311973 </i>
   </energy>
  </scstep>
  <scstep>
   <time name="dav">    1.22    1.61</time>
   <time name="total">    1.22    1.62</time>
   <energy>
    <i name="e_fr_energy">    -12.69703986 </i>
    <i name="e_wo_entrp">    -12.69703986 </i>
    <i name="e_0_energy">    -12.69703986 </i>
   </energy>
  </scstep>
  <scstep>
   <time name="dav">    2.06    2.39</time>
   <time name="total">    2.06    2.41</time>
   <energy>
    <i name="e_fr_energy">    -12.79129373 </i>
    <i name="e_wo_entrp">    -12.79129373 </i>
    <i name="e_0_energy">    -12.79129373 </i>
   </energy>
  </scstep>
  <scstep>
   <time name="dav">    1.62    2.02</time>
   <time name="total">    2.09    2.53</time>
   <energy>
    <i name="e_fr_energy">    -12.79131443 </i>
    <i name="e_wo_entrp">    -12.79131443 </i>
    <i name="e_0_energy">    -12.79131443 </i>
   </energy>
  </scstep>
  <scstep>
   <time name="dav">    1.11    1.33</time>
   <time name="total">    5.32    6.15</time>
   <energy>
    <i name="e_fr_energy">     -4.55077899 </i>
    <i name="e_wo_entrp">     -4.55077899 </i>
    <i name="e_0_energy">     -4.55077899 </i>
   </energy>
  </scstep>
  <scstep>
   <time name="dav">    1.05    1.05</time>
   <time name="total">    5.21    5.76</time>
   <energy>
    <i name="e_fr_energy">    -11.35717342 </i>
    <i name="e_wo_entrp">    -11.35717342 </i>
    <i name="e_0_energy">    -11.35717342 </i>
   </energy>
  </scstep>
  <scstep>
   <time name="dav">    1.34    1.34</time>
   <time name="total">    5.42    6.18</time>
   <energy>
    <i name="e_fr_energy">    -12.33209787 </i>
    <i name="e_wo_entrp">    -12.33209787 </i>
    <i name="e_0_energy">    -12.33209787 </i>
   </energy>
  </scstep>
  <scstep>
   <time name="dav">    1.38    1.52</time>
   <time name="total">    5.53    5.80</time>
   <energy>
    <i name="e_fr_energy">    -14.07592773 </i>
    <i name="e_wo_entrp">    -14.07592773 </i>
    <i name="e_0_energy">    -14.07592773 </i>
   </energy>
  </scstep>
  <scstep>
   <time name="dav">    1.36    1.41</time>
   <time name="total">    5.53    6.12</time>
   <energy>
    <i name="e_fr_energy">    -14.16374595 </i>
    <i name="e_wo_entrp">    -14.16374595 </i>
    <i name="e_0_energy">    -14.16374595 </i>
   </energy>
  </scstep>
  <scstep>
   <time name="dav">    1.33    1.37</time>
   <time name="total">    5.42    6.02</time>
   <energy>
    <i name="e_fr_energy">    -14.18345791 </i>
    <i name="e_wo_entrp">    -14.18345791 </i>
    <i name="e_0_energy">    -14.18345791 </i>
   </energy>
  </scstep>
  <scstep>
   <time name="dav">    1.51    1.88</time>
   <time name="total">    5.63    6.74</time>
   <energy>
    <i name="e_fr_energy">    -14.18518698 </i>
    <i name="e_wo_entrp">    -14.18518698 </i>
    <i name="e_0_energy">    -14.18518698 </i>
   </energy>
  </scstep>
  <scstep>
   <time name="dav">    1.13    1.45</time>
   <time name="total">    5.21    6.11</time>
   <energy>
    <i name="e_fr_energy">    -14.20354961 </i>
    <i name="e_wo_entrp">    -14.20354961 </i>
    <i name="e_0_energy">    -14.20354961 </i>
   </energy>
  </scstep>
  <scstep>
   <time name="dav">    2.31    2.75</time>
   <time name="total">    7.75    9.73</time>
   <energy>
    <i name="e_fr_energy">    -14.20646415 </i>
    <i name="e_wo_entrp">    -14.20646415 </i>
    <i name="e_0_energy">    -14.20646415 </i>
   </energy>
  </scstep>
  <scstep>
   <time name="dav">    1.18    1.54</time>
   <time name="total">    6.29    7.52</time>
   <energy>
    <i name="e_fr_energy">    -14.20903178 </i>
    <i name="e_wo_entrp">    -14.20903178 </i>
    <i name="e_0_energy">    -14.20903178 </i>
   </energy>
  </scstep>
  <scstep>
   <time name="dav">    1.08    1.15</time>
   <time name="total">    5.30    6.12</time>
   <energy>
    <i name="e_fr_energy">    -14.21115728 </i>
    <i name="e_wo_entrp">    -14.21115728 </i>
    <i name="e_0_energy">    -14.21115728 </i>
   </energy>
  </scstep>
  <scstep>
   <time name="dav">    1.12    1.29</time>
   <time name="total">    5.21    6.13</time>
   <energy>
    <i name="e_fr_energy">    -14.21181079 </i>
    <i name="e_wo_entrp">    -14.21181079 </i>
    <i name="e_0_energy">    -14.21181079 </i>
   </energy>
  </scstep>
  <scstep>
   <time name="dav">    1.46    1.66</time>
   <time name="total">    5.50    6.33</time>
   <energy>
    <i name="e_fr_energy">    -14.21223932 </i>
    <i name="e_wo_entrp">    -14.21223932 </i>
    <i name="e_0_energy">    -14.21223932 </i>
   </energy>
  </scstep>
  <scstep>
   <time name="dav">    1.46    1.74</time>
   <time name="total">    5.75    7.13</time>
   <energy>
    <i name="e_fr_energy">    -14.21247881 </i>
    <i name="e_wo_entrp">    -14.21247881 </i>
    <i name="e_0_energy">    -14.21247881 </i>
   </energy>
  </scstep>
  <scstep>
   <time name="dav">    1.42    1.75</time>
   <time name="total">    5.11    5.90</time>
   <energy>
    <i name="alphaZ">      0.22422278 </i>
    <i name="ewald">     57.50960611 </i>
    <i name="hartreedc">   -451.50940353 </i>
    <i name="XCdc">     34.07191151 </i>
    <i name="pawpsdc">    334.69435705 </i>
    <i name="pawaedc">   -336.71155254 </i>
    <i name="eentropy">      0.00000000 </i>
    <i name="bandstr">   -109.42856366 </i>
    <i name="atom">    456.93688444 </i>
    <i name="e_fr_energy">    -14.21253783 </i>
    <i name="e_wo_entrp">    -14.21253783 </i>
    <i name="e_0_energy">    -14.21253783 </i>
   </energy>
  </scstep>
  <parameters_embedded>
   <separator name="dft+d2" >
    <i type="logical" name="LVDW"> F  </i>
   </separator>
  </parameters_embedded>
  <structure>
   <crystal>
    <varray name="basis" >
     <v>      10.00000000       0.00000000       0.00000000 </v>
     <v>       0.00000000      10.00000000       0.00000000 </v>
     <v>       0.00000000       0.00000000      10.00000000 </v>
    </varray>
    <i name="volume">   1000.00000000 </i>
    <varray name="rec_basis" >
     <v>       0.10000000       0.00000000       0.00000000 </v>
     <v>       0.00000000       0.10000000       0.00000000 </v>
     <v>       0.00000000       0.00000000       0.10000000 </v>
    </varray>
   </crystal>
   <varray name="positions" >
    <v>       0.50000000       0.57632390       0.47018455 </v>
    <v>       0.50000000       0.42367610       0.47018455 </v>
    <v>       0.50000000       0.50000000       0.52981545 </v>
   </varray>
  </structure>
  <varray name="forces" >
   <v>       0.00000000       0.20564812      -0.10016950 </v>
   <v>       0.00000000      -0.20564812      -0.10016950 </v>
   <v>       0.00000000       0.00000000       0.20033900 </v>
  </varray>
  <varray name="stress" >
   <v>      -3.89221160       0.00000000       0.00000000 </v>
   <v>       0.00000000      -2.81026740       0.00000000 </v>
   <v>       0.00000000       0.00000000      -3.40064816 </v>
  </varray>
  <energy>
   <i name="e_fr_energy">    -14.21253783 </i>
   <i name="e_wo_entrp">    -14.21253783 </i>
   <i name="e_0_energy">      0.00000000 </i>
  </energy>
  <time name="totalsc">  106.70  125.51</time>
 </calculation>
 <calculation>
  <scstep>
   <time name="dav">    1.58    2.04</time>
   <time name="total">    6.02    7.41</time>
   <energy>
    <i name="alphaZ">      0.22422278 </i>
    <i name="ewald">     54.36809190 </i>
    <i name="hartreedc">   -449.97537375 </i>
    <i name="XCdc">     34.00044178 </i>
    <i name="pawpsdc">    334.69581534 </i>
    <i name="pawaedc">   -336.71310231 </i>
    <i name="eentropy">      0.00000000 </i>
    <i name="bandstr">   -107.74501044 </i>
    <i name="atom">    456.93688444 </i>
    <i name="e_fr_energy">    -14.20803028 </i>
    <i name="e_wo_entrp">    -14.20803028 </i>
    <i name="e_0_energy">    -14.20803028 </i>
   </energy>
  </scstep>
  <scstep>
   <time name="dav">    2.27    2.53</time>
   <time name="total">    7.83    9.38</time>
   <energy>
    <i name="e_fr_energy">    -14.20678387 </i>
    <i name="e_wo_entrp">    -14.20678387 </i>
    <i name="e_0_energy">    -14.20678387 </i>
   </energy>
  </scstep>
  <scstep>
   <time name="dav">    1.84    2.48</time>
   <time name="total">    6.84    8.50</time>
   <energy>
    <i name="e_fr_energy">    -14.20665175 </i>
    <i name="e_wo_entrp">    -14.20665175 </i>
    <i name="e_0_energy">    -14.20665175 </i>
   </energy>
  </scstep>
  <scstep>
   <time name="dav">    1.99    2.11</time>
   <time name="total">    6.73    7.49</time>
   <energy>
    <i name="alphaZ">      0.22422278 </i>
    <i name="ewald">     54.36809190 </i>
    <i name="hartreedc">   -449.04655204 </i>
    <i name="XCdc">     33.94702574 </i>
    <i name="pawpsdc">    330.26146283 </i>
    <i name="pawaedc">   -332.25730161 </i>
    <i name="eentropy">      0.00000000 </i>
    <i name="bandstr">   -108.64051621 </i>
    <i name="atom">    456.93688444 </i>
    <i name="e_fr_energy">    -14.20668216 </i>
    <i name="e_wo_entrp">    -14.20668216 </i>
    <i name="e_0_energy">    -14.20668216 </i>
   </energy>
  </scstep>
  <structure>
   <crystal>
    <varray name="basis" >
     <v>      10.00000000       0.00000000       0.00000000 </v>
     <v>       0.00000000      10.00000000       0.00000000 </v>
     <v>       0.00000000       0.00000000      10.00000000 </v>
    </varray>
    <i name="volume">   1000.00000000 </i>
    <varray name="rec_basis" >
     <v>       0.10000000       0.00000000       0.00000000 </v>
     <v>       0.00000000       0.10000000       0.00000000 </v>
     <v>       0.00000000       0.00000000       0.10000000 </v>
    </varray>
   </crystal>
   <varray name="positions" >
    <v>       0.50000000       0.57731600       0.46970131 </v>
    <v>       0.50000000       0.42268400       0.46970131 </v>
    <v>       0.50000000       0.50000000       0.53078194 </v>
   </varray>
  </structure>
  <varray name="forces" >
   <v>       0.00000000      -0.39632253       0.36103262 </v>
   <v>       0.00000000       0.39632253       0.36103262 </v>
   <v>       0.00000000       0.00000000      -0.72206524 </v>
  </varray>
  <varray name="stress" >
   <v>      -3.90954927       0.00000000       0.00000000 </v>
   <v>       0.00000000      -4.29323627       0.00000000 </v>
   <v>       0.00000000       0.00000000      -4.29939374 </v>
  </varray>
  <energy>
   <i name="e_fr_energy">    -14.20668216 </i>
   <i name="e_wo_entrp">    -14.20668216 </i>
   <i name="e_0_energy">      0.00000000 </i>
  </energy>
  <time name="totalsc">   34.97   42.03</time>
 </calculation>
 <calculation>
  <scstep>
   <time name="dav">    1.64    1.97</time>
   <time name="total">    7.34    8.68</time>
   <energy>
    <i name="alphaZ">      0.22422278 </i>
    <i name="ewald">     56.63261011 </i>
    <i name="hartreedc">   -450.14505976 </i>
    <i name="XCdc">     33.99804959 </i>
    <i name="pawpsdc">    330.10206426 </i>
    <i name="pawaedc">   -332.09664117 </i>
    <i name="eentropy">      0.00000000 </i>
    <i name="bandstr">   -109.86626948 </i>
    <i name="atom">    456.93688444 </i>
    <i name="e_fr_energy">    -14.21413924 </i>
    <i name="e_wo_entrp">    -14.21413924 </i>
    <i name="e_0_energy">    -14.21413924 </i>
   </energy>
  </scstep>
  <scstep>
   <time name="dav">    2.46    2.88</time>
   <time name="total">    7.83   10.11</time>
   <energy>
    <i name="e_fr_energy">    -14.21356374 </i>
    <i name="e_wo_entrp">    -14.21356374 </i>
    <i name="e_0_energy">    -14.21356374 </i>
   </energy>
  </scstep>
  <scstep>
   <time name="dav">    2.06    2.67</time>
   <time name="total">    6.40    8.67</time>
   <energy>
    <i name="alphaZ">      0.22422278 </i>
    <i name="ewald">     56.63261011 </i>
    <i name="hartreedc">   -450.79905407 </i>
    <i name="XCdc">     34.03547229 </i>
    <i name="pawpsdc">    332.65437272 </i>
    <i name="pawaedc">   -334.66120632 </i>
    <i name="eentropy">      0.00000000 </i>
    <i name="bandstr">   -109.23679789 </i>
    <i name="atom">    456.93688444 </i>
    <i name="e_fr_energy">    -14.21349596 </i>
    <i name="e_wo_entrp">    -14.21349596 </i>
    <i name="e_0_energy">    -14.21349596 </i>
   </energy>
  </scstep>
  <structure>
   <crystal>
    <varray name="basis" >
     <v>      10.00000000       0.00000000       0.00000000 </v>
     <v>       0.00000000      10.00000000       0.00000000 </v>
     <v>       0.00000000       0.00000000      10.00000000 </v>
    </varray>
    <i name="volume">   1000.00000000 </i>
    <varray name="rec_basis" >
     <v>       0.10000000       0.00000000       0.00000000 </v>
     <v>       0.00000000       0.10000000       0.00000000 </v>
     <v>       0.00000000       0.00000000       0.10000000 </v>
    </varray>
   </crystal>
   <varray name="positions" >
    <v>       0.50000000       0.57659762       0.47005122 </v>
    <v>       0.50000000       0.42340238       0.47005122 </v>
    <v>       0.50000000       0.50000000       0.53008210 </v>
   </varray>
  </structure>
  <varray name="forces" >
   <v>       0.00000000       0.02968346       0.03571050 </v>
   <v>       0.00000000      -0.02968346       0.03571050 </v>
   <v>       0.00000000       0.00000000      -0.07142101 </v>
  </varray>
  <varray name="stress" >
   <v>      -3.86139620       0.00000000       0.00000000 </v>
   <v>       0.00000000      -3.27975074       0.00000000 </v>
   <v>       0.00000000       0.00000000      -3.64610885 </v>
  </varray>
  <energy>
   <i name="e_fr_energy">    -14.21349596 </i>
   <i name="e_wo_entrp">    -14.21349596 </i>
   <i name="e_0_energy">      0.00000000 </i>
  </energy>
  <time name="totalsc">   28.06   36.54</time>
  <eigenvalues>
   <array>
    <dimension dim="1">band</dimension>
    <dimension dim="2">kpoint</dimension>
    <dimension dim="3">spin</dimension>
    <field>eigene</field>
    <field>occ</field>
    <set>
     <set comment="spin 1">
      <set comment="kpoint 1">
       <r>  -25.2612    1.0000 </r>
       <r>  -12.9909    1.0000 </r>
       <r>   -9.2308    1.0000 </r>
       <r>   -7.1355    1.0000 </r>
       <r>   -1.0003    0.0000 </r>
       <r>    0.4995    0.0000 </r>
       <r>    0.7271    0.0000 </r>
      </set>
     </set>
     <set comment="spin 2">
      <set comment="kpoint 1">
       <r>  -25.2612    1.0000 </r>
       <r>  -12.9909    1.0000 </r>
       <r>   -9.2307    1.0000 </r>
       <r>   -7.1356    1.0000 </r>
       <r>   -1.0006    0.0000 </r>
       <r>    0.5008    0.0000 </r>
       <r>    0.7271    0.0000 </r>
      </set>
     </set>
    </set>
   </array>
  </eigenvalues>
  <separator name="orbital magnetization" >
   <v name="MAGDIPOLOUT">      0.00000000      0.00000000      0.00000000</v>
  </separator>
  <dos>
   <i name="efermi">     -6.16902371 </i>
   <total>
    <array>
     <dimension dim="1">gridpoints</dimension>
     <dimension dim="2">spin</dimension>
     <field>energy</field>
     <field>total</field>
     <field>integrated</field>
     <set>
      <set comment="spin 1">
       <r>   -27.2612     0.0000     0.0000 </r>
       <r>   -27.1613     0.0000     0.0000 </r>
       <r>   -27.0613     0.0000     0.0000 </r>
       <r>   -26.9614     0.0000     0.0000 </r>
       <r>   -26.8614     0.0000     0.0000 </r>
       <r>   -26.7614     0.0000     0.0000 </r>
       <r>   -26.6615     0.0000     0.0000 </r>
       <r>   -26.5615     0.0000     0.0000 </r>
       <r>   -26.4616     0.0000     0.0000 </r>
       <r>   -26.3616     0.0000     0.0000 </r>
       <r>   -26.2616     0.0000     0.0000 </r>
       <r>   -26.1617     0.0000     0.0000 </r>
       <r>   -26.0617     0.0000     0.0000 </r>
       <r>   -25.9618     0.0000     0.0000 </r>
       <r>   -25.8618     0.0001     0.0000 </r>
       <r>   -25.7618     0.0019     0.0002 </r>
       <r>   -25.6619     0.0211     0.0023 </r>
       <r>   -25.5619     0.1445     0.0168 </r>
       <r>   -25.4619     0.6119     0.0779 </r>
       <r>   -25.3620     1.6026     0.2381 </r>
       <r>   -25.2620     2.5977     0.4978 </r>
       <r>   -25.1621     2.6075     0.7584 </r>
       <r>   -25.0621     1.6208     0.9205 </r>
       <r>   -24.9621     0.6235     0.9828 </r>
       <r>   -24.8622     0.1483     0.9976 </r>
       <r>   -24.7622     0.0218     0.9998 </r>
       <r>   -24.6623     0.0020     1.0000 </r>
       <r>   -24.5623     0.0001     1.0000 </r>
       <r>   -24.4623     0.0000     1.0000 </r>
       <r>   -24.3624     0.0000     1.0000 </r>
       <r>   -24.2624     0.0000     1.0000 </r>
       <r>   -24.1624     0.0000     1.0000 </r>
       <r>   -24.0625     0.0000     1.0000 </r>
       <r>   -23.9625     0.0000     1.0000 </r>
       <r>   -23.8626     0.0000     1.0000 </r>
       <r>   -23.7626     0.0000     1.0000 </r>
       <r>   -23.6626     0.0000     1.0000 </r>
       <r>   -23.5627     0.0000     1.0000 </r>
       <r>   -23.4627     0.0000     1.0000 </r>
       <r>   -23.3628     0.0000     1.0000 </r>
       <r>   -23.2628     0.0000     1.0000 </r>
       <r>   -23.1628     0.0000     1.0000 </r>
       <r>   -23.0629     0.0000     1.0000 </r>
       <r>   -22.9629     0.0000     1.0000 </r>
       <r>   -22.8630     0.0000     1.0000 </r>
       <r>   -22.7630     0.0000     1.0000 </r>
       <r>   -22.6630     0.0000     1.0000 </r>
       <r>   -22.5631     0.0000     1.0000 </r>
       <r>   -22.4631     0.0000     1.0000 </r>
       <r>   -22.3631     0.0000     1.0000 </r>
       <r>   -22.2632     0.0000     1.0000 </r>
       <r>   -22.1632     0.0000     1.0000 </r>
       <r>   -22.0633     0.0000     1.0000 </r>
       <r>   -21.9633     0.0000     1.0000 </r>
       <r>   -21.8633     0.0000     1.0000 </r>
       <r>   -21.7634     0.0000     1.0000 </r>
       <r>   -21.6634     0.0000     1.0000 </r>
       <r>   -21.5635     0.0000     1.0000 </r>
       <r>   -21.4635     0.0000     1.0000 </r>
       <r>   -21.3635     0.0000     1.0000 </r>
       <r>   -21.2636     0.0000     1.0000 </r>
       <r>   -21.1636     0.0000     1.0000 </r>
       <r>   -21.0636     0.0000     1.0000 </r>
       <r>   -20.9637     0.0000     1.0000 </r>
       <r>   -20.8637     0.0000     1.0000 </r>
       <r>   -20.7638     0.0000     1.0000 </r>
       <r>   -20.6638     0.0000     1.0000 </r>
       <r>   -20.5638     0.0000     1.0000 </r>
       <r>   -20.4639     0.0000     1.0000 </r>
       <r>   -20.3639     0.0000     1.0000 </r>
       <r>   -20.2640     0.0000     1.0000 </r>
       <r>   -20.1640     0.0000     1.0000 </r>
       <r>   -20.0640     0.0000     1.0000 </r>
       <r>   -19.9641     0.0000     1.0000 </r>
       <r>   -19.8641     0.0000     1.0000 </r>
       <r>   -19.7642     0.0000     1.0000 </r>
       <r>   -19.6642     0.0000     1.0000 </r>
       <r>   -19.5642     0.0000     1.0000 </r>
       <r>   -19.4643     0.0000     1.0000 </r>
       <r>   -19.3643     0.0000     1.0000 </r>
       <r>   -19.2643     0.0000     1.0000 </r>
       <r>   -19.1644     0.0000     1.0000 </r>
       <r>   -19.0644     0.0000     1.0000 </r>
       <r>   -18.9645     0.0000     1.0000 </r>
       <r>   -18.8645     0.0000     1.0000 </r>
       <r>   -18.7645     0.0000     1.0000 </r>
       <r>   -18.6646     0.0000     1.0000 </r>
       <r>   -18.5646     0.0000     1.0000 </r>
       <r>   -18.4647     0.0000     1.0000 </r>
       <r>   -18.3647     0.0000     1.0000 </r>
       <r>   -18.2647     0.0000     1.0000 </r>
       <r>   -18.1648     0.0000     1.0000 </r>
       <r>   -18.0648     0.0000     1.0000 </r>
       <r>   -17.9648     0.0000     1.0000 </r>
       <r>   -17.8649     0.0000     1.0000 </r>
       <r>   -17.7649     0.0000     1.0000 </r>
       <r>   -17.6650     0.0000     1.0000 </r>
       <r>   -17.5650     0.0000     1.0000 </r>
       <r>   -17.4650     0.0000     1.0000 </r>
       <r>   -17.3651     0.0000     1.0000 </r>
       <r>   -17.2651     0.0000     1.0000 </r>
       <r>   -17.1652     0.0000     1.0000 </r>
       <r>   -17.0652     0.0000     1.0000 </r>
       <r>   -16.9652     0.0000     1.0000 </r>
       <r>   -16.8653     0.0000     1.0000 </r>
       <r>   -16.7653     0.0000     1.0000 </r>
       <r>   -16.6654     0.0000     1.0000 </r>
       <r>   -16.5654     0.0000     1.0000 </r>
       <r>   -16.4654     0.0000     1.0000 </r>
       <r>   -16.3655     0.0000     1.0000 </r>
       <r>   -16.2655     0.0000     1.0000 </r>
       <r>   -16.1655     0.0000     1.0000 </r>
       <r>   -16.0656     0.0000     1.0000 </r>
       <r>   -15.9656     0.0000     1.0000 </r>
       <r>   -15.8657     0.0000     1.0000 </r>
       <r>   -15.7657     0.0000     1.0000 </r>
       <r>   -15.6657     0.0000     1.0000 </r>
       <r>   -15.5658     0.0000     1.0000 </r>
       <r>   -15.4658     0.0000     1.0000 </r>
       <r>   -15.3659     0.0000     1.0000 </r>
       <r>   -15.2659     0.0000     1.0000 </r>
       <r>   -15.1659     0.0000     1.0000 </r>
       <r>   -15.0660     0.0000     1.0000 </r>
       <r>   -14.9660     0.0000     1.0000 </r>
       <r>   -14.8660     0.0000     1.0000 </r>
       <r>   -14.7661     0.0000     1.0000 </r>
       <r>   -14.6661     0.0000     1.0000 </r>
       <r>   -14.5662     0.0000     1.0000 </r>
       <r>   -14.4662     0.0000     1.0000 </r>
       <r>   -14.3662     0.0000     1.0000 </r>
       <r>   -14.2663     0.0000     1.0000 </r>
       <r>   -14.1663     0.0000     1.0000 </r>
       <r>   -14.0664     0.0000     1.0000 </r>
       <r>   -13.9664     0.0000     1.0000 </r>
       <r>   -13.8664     0.0000     1.0000 </r>
       <r>   -13.7665     0.0000     1.0000 </r>
       <r>   -13.6665     0.0000     1.0000 </r>
       <r>   -13.5666     0.0002     1.0000 </r>
       <r>   -13.4666     0.0036     1.0004 </r>
       <r>   -13.3666     0.0356     1.0039 </r>
       <r>   -13.2667     0.2164     1.0256 </r>
       <r>   -13.1667     0.8132     1.1069 </r>
       <r>   -13.0667     1.8901     1.2958 </r>
       <r>   -12.9668     2.7192     1.5676 </r>
       <r>   -12.8668     2.4227     1.8098 </r>
       <r>   -12.7669     1.3365     1.9434 </r>
       <r>   -12.6669     0.4563     1.9890 </r>
       <r>   -12.5669     0.0963     1.9986 </r>
       <r>   -12.4670     0.0125     1.9999 </r>
       <r>   -12.3670     0.0010     2.0000 </r>
       <r>   -12.2671     0.0000     2.0000 </r>
       <r>   -12.1671     0.0000     2.0000 </r>
       <r>   -12.0671     0.0000     2.0000 </r>
       <r>   -11.9672     0.0000     2.0000 </r>
       <r>   -11.8672     0.0000     2.0000 </r>
       <r>   -11.7672     0.0000     2.0000 </r>
       <r>   -11.6673     0.0000     2.0000 </r>
       <r>   -11.5673     0.0000     2.0000 </r>
       <r>   -11.4674     0.0000     2.0000 </r>
       <r>   -11.3674     0.0000     2.0000 </r>
       <r>   -11.2674     0.0000     2.0000 </r>
       <r>   -11.1675     0.0000     2.0000 </r>
       <r>   -11.0675     0.0000     2.0000 </r>
       <r>   -10.9676     0.0000     2.0000 </r>
       <r>   -10.8676     0.0000     2.0000 </r>
       <r>   -10.7676     0.0000     2.0000 </r>
       <r>   -10.6677     0.0000     2.0000 </r>
       <r>   -10.5677     0.0000     2.0000 </r>
       <r>   -10.4678     0.0000     2.0000 </r>
       <r>   -10.3678     0.0000     2.0000 </r>
       <r>   -10.2678     0.0000     2.0000 </r>
       <r>   -10.1679     0.0000     2.0000 </r>
       <r>   -10.0679     0.0000     2.0000 </r>
       <r>    -9.9679     0.0000     2.0000 </r>
       <r>    -9.8680     0.0000     2.0000 </r>
       <r>    -9.7680     0.0007     2.0001 </r>
       <r>    -9.6681     0.0092     2.0010 </r>
       <r>    -9.5681     0.0754     2.0085 </r>
       <r>    -9.4681     0.3810     2.0466 </r>
       <r>    -9.3682     1.1902     2.1656 </r>
       <r>    -9.2682     2.3004     2.3956 </r>
       <r>    -9.1683     2.7529     2.6707 </r>
       <r>    -9.0683     2.0402     2.8747 </r>
       <r>    -8.9683     0.9360     2.9682 </r>
       <r>    -8.8684     0.2657     2.9948 </r>
       <r>    -8.7684     0.0466     2.9995 </r>
       <r>    -8.6684     0.0050     3.0000 </r>
       <r>    -8.5685     0.0003     3.0000 </r>
       <r>    -8.4685     0.0000     3.0000 </r>
       <r>    -8.3686     0.0000     3.0000 </r>
       <r>    -8.2686     0.0000     3.0000 </r>
       <r>    -8.1686     0.0000     3.0000 </r>
       <r>    -8.0687     0.0000     3.0000 </r>
       <r>    -7.9687     0.0000     3.0000 </r>
       <r>    -7.8688     0.0000     3.0000 </r>
       <r>    -7.7688     0.0000     3.0000 </r>
       <r>    -7.6688     0.0008     3.0001 </r>
       <r>    -7.5689     0.0101     3.0011 </r>
       <r>    -7.4689     0.0812     3.0092 </r>
       <r>    -7.3689     0.4023     3.0494 </r>
       <r>    -7.2690     1.2330     3.1727 </r>
       <r>    -7.1690     2.3381     3.4064 </r>
       <r>    -7.0691     2.7454     3.6808 </r>
       <r>    -6.9691     1.9962     3.8804 </r>
       <r>    -6.8691     0.8986     3.9702 </r>
       <r>    -6.7692     0.2502     3.9952 </r>
       <r>    -6.6692     0.0431     3.9995 </r>
       <r>    -6.5693     0.0046     4.0000 </r>
       <r>    -6.4693     0.0003     4.0000 </r>
       <r>    -6.3693     0.0000     4.0000 </r>
       <r>    -6.2694     0.0000     4.0000 </r>
       <r>    -6.1694     0.0000     4.0000 </r>
       <r>    -6.0695     0.0000     4.0000 </r>
       <r>    -5.9695     0.0000     4.0000 </r>
       <r>    -5.8695     0.0000     4.0000 </r>
       <r>    -5.7696     0.0000     4.0000 </r>
       <r>    -5.6696     0.0000     4.0000 </r>
       <r>    -5.5696     0.0000     4.0000 </r>
       <r>    -5.4697     0.0000     4.0000 </r>
       <r>    -5.3697     0.0000     4.0000 </r>
       <r>    -5.2698     0.0000     4.0000 </r>
       <r>    -5.1698     0.0000     4.0000 </r>
       <r>    -5.0698     0.0000     4.0000 </r>
       <r>    -4.9699     0.0000     4.0000 </r>
       <r>    -4.8699     0.0000     4.0000 </r>
       <r>    -4.7700     0.0000     4.0000 </r>
       <r>    -4.6700     0.0000     4.0000 </r>
       <r>    -4.5700     0.0000     4.0000 </r>
       <r>    -4.4701     0.0000     4.0000 </r>
       <r>    -4.3701     0.0000     4.0000 </r>
       <r>    -4.2701     0.0000     4.0000 </r>
       <r>    -4.1702     0.0000     4.0000 </r>
       <r>    -4.0702     0.0000     4.0000 </r>
       <r>    -3.9703     0.0000     4.0000 </r>
       <r>    -3.8703     0.0000     4.0000 </r>
       <r>    -3.7703     0.0000     4.0000 </r>
       <r>    -3.6704     0.0000     4.0000 </r>
       <r>    -3.5704     0.0000     4.0000 </r>
       <r>    -3.4705     0.0000     4.0000 </r>
       <r>    -3.3705     0.0000     4.0000 </r>
       <r>    -3.2705     0.0000     4.0000 </r>
       <r>    -3.1706     0.0000     4.0000 </r>
       <r>    -3.0706     0.0000     4.0000 </r>
       <r>    -2.9707     0.0000     4.0000 </r>
       <r>    -2.8707     0.0000     4.0000 </r>
       <r>    -2.7707     0.0000     4.0000 </r>
       <r>    -2.6708     0.0000     4.0000 </r>
       <r>    -2.5708     0.0000     4.0000 </r>
       <r>    -2.4708     0.0000     4.0000 </r>
       <r>    -2.3709     0.0000     4.0000 </r>
       <r>    -2.2709     0.0000     4.0000 </r>
       <r>    -2.1710     0.0000     4.0000 </r>
       <r>    -2.0710     0.0000     4.0000 </r>
       <r>    -1.9710     0.0000     4.0000 </r>
       <r>    -1.8711     0.0000     4.0000 </r>
       <r>    -1.7711     0.0000     4.0000 </r>
       <r>    -1.6712     0.0000     4.0000 </r>
       <r>    -1.5712     0.0003     4.0000 </r>
       <r>    -1.4712     0.0041     4.0004 </r>
       <r>    -1.3713     0.0393     4.0044 </r>
       <r>    -1.2713     0.2332     4.0277 </r>
       <r>    -1.1713     0.8563     4.1133 </r>
       <r>    -1.0714     1.9447     4.3077 </r>
       <r>    -0.9714     2.7340     4.5810 </r>
       <r>    -0.8715     2.3803     4.8189 </r>
       <r>    -0.7715     1.2832     4.9472 </r>
       <r>    -0.6715     0.4280     4.9900 </r>
       <r>    -0.5716     0.0883     4.9988 </r>
       <r>    -0.4716     0.0112     4.9999 </r>
       <r>    -0.3717     0.0009     5.0000 </r>
       <r>    -0.2717     0.0000     5.0000 </r>
       <r>    -0.1717     0.0000     5.0000 </r>
       <r>    -0.0718     0.0003     5.0000 </r>
       <r>     0.0282     0.0040     5.0004 </r>
       <r>     0.1281     0.0390     5.0043 </r>
       <r>     0.2281     0.2337     5.0277 </r>
       <r>     0.3281     0.8743     5.1151 </r>
       <r>     0.4280     2.0884     5.3238 </r>
       <r>     0.5280     3.3568     5.6594 </r>
       <r>     0.6280     4.0056     6.0598 </r>
       <r>     0.7279     3.8957     6.4492 </r>
       <r>     0.8279     3.0279     6.7519 </r>
       <r>     0.9278     1.6909     6.9209 </r>
       <r>     1.0278     0.6228     6.9832 </r>
       <r>     1.1278     0.1452     6.9977 </r>
       <r>     1.2277     0.0211     6.9998 </r>
       <r>     1.3277     0.0019     7.0000 </r>
       <r>     1.4276     0.0001     7.0000 </r>
       <r>     1.5276     0.0000     7.0000 </r>
       <r>     1.6276     0.0000     7.0000 </r>
       <r>     1.7275     0.0000     7.0000 </r>
       <r>     1.8275     0.0000     7.0000 </r>
       <r>     1.9275     0.0000     7.0000 </r>
       <r>     2.0274     0.0000     7.0000 </r>
       <r>     2.1274     0.0000     7.0000 </r>
       <r>     2.2273     0.0000     7.0000 </r>
       <r>     2.3273     0.0000     7.0000 </r>
       <r>     2.4273     0.0000     7.0000 </r>
       <r>     2.5272     0.0000     7.0000 </r>
       <r>     2.6272     0.0000     7.0000 </r>
       <r>     2.7271     0.0000     7.0000 </r>
      </set>
      <set comment="spin 2">
       <r>   -27.2612     0.0000     0.0000 </r>
       <r>   -27.1613     0.0000     0.0000 </r>
       <r>   -27.0613     0.0000     0.0000 </r>
       <r>   -26.9614     0.0000     0.0000 </r>
       <r>   -26.8614     0.0000     0.0000 </r>
       <r>   -26.7614     0.0000     0.0000 </r>
       <r>   -26.6615     0.0000     0.0000 </r>
       <r>   -26.5615     0.0000     0.0000 </r>
       <r>   -26.4616     0.0000     0.0000 </r>
       <r>   -26.3616     0.0000     0.0000 </r>
       <r>   -26.2616     0.0000     0.0000 </r>
       <r>   -26.1617     0.0000     0.0000 </r>
       <r>   -26.0617     0.0000     0.0000 </r>
       <r>   -25.9618     0.0000     0.0000 </r>
       <r>   -25.8618     0.0001     0.0000 </r>
       <r>   -25.7618     0.0019     0.0002 </r>
       <r>   -25.6619     0.0211     0.0023 </r>
       <r>   -25.5619     0.1445     0.0168 </r>
       <r>   -25.4619     0.6120     0.0779 </r>
       <r>   -25.3620     1.6027     0.2381 </r>
       <r>   -25.2620     2.5978     0.4978 </r>
       <r>   -25.1621     2.6075     0.7585 </r>
       <r>   -25.0621     1.6206     0.9205 </r>
       <r>   -24.9621     0.6235     0.9828 </r>
       <r>   -24.8622     0.1483     0.9976 </r>
       <r>   -24.7622     0.0218     0.9998 </r>
       <r>   -24.6623     0.0020     1.0000 </r>
       <r>   -24.5623     0.0001     1.0000 </r>
       <r>   -24.4623     0.0000     1.0000 </r>
       <r>   -24.3624     0.0000     1.0000 </r>
       <r>   -24.2624     0.0000     1.0000 </r>
       <r>   -24.1624     0.0000     1.0000 </r>
       <r>   -24.0625     0.0000     1.0000 </r>
       <r>   -23.9625     0.0000     1.0000 </r>
       <r>   -23.8626     0.0000     1.0000 </r>
       <r>   -23.7626     0.0000     1.0000 </r>
       <r>   -23.6626     0.0000     1.0000 </r>
       <r>   -23.5627     0.0000     1.0000 </r>
       <r>   -23.4627     0.0000     1.0000 </r>
       <r>   -23.3628     0.0000     1.0000 </r>
       <r>   -23.2628     0.0000     1.0000 </r>
       <r>   -23.1628     0.0000     1.0000 </r>
       <r>   -23.0629     0.0000     1.0000 </r>
       <r>   -22.9629     0.0000     1.0000 </r>
       <r>   -22.8630     0.0000     1.0000 </r>
       <r>   -22.7630     0.0000     1.0000 </r>
       <r>   -22.6630     0.0000     1.0000 </r>
       <r>   -22.5631     0.0000     1.0000 </r>
       <r>   -22.4631     0.0000     1.0000 </r>
       <r>   -22.3631     0.0000     1.0000 </r>
       <r>   -22.2632     0.0000     1.0000 </r>
       <r>   -22.1632     0.0000     1.0000 </r>
       <r>   -22.0633     0.0000     1.0000 </r>
       <r>   -21.9633     0.0000     1.0000 </r>
       <r>   -21.8633     0.0000     1.0000 </r>
       <r>   -21.7634     0.0000     1.0000 </r>
       <r>   -21.6634     0.0000     1.0000 </r>
       <r>   -21.5635     0.0000     1.0000 </r>
       <r>   -21.4635     0.0000     1.0000 </r>
       <r>   -21.3635     0.0000     1.0000 </r>
       <r>   -21.2636     0.0000     1.0000 </r>
       <r>   -21.1636     0.0000     1.0000 </r>
       <r>   -21.0636     0.0000     1.0000 </r>
       <r>   -20.9637     0.0000     1.0000 </r>
       <r>   -20.8637     0.0000     1.0000 </r>
       <r>   -20.7638     0.0000     1.0000 </r>
       <r>   -20.6638     0.0000     1.0000 </r>
       <r>   -20.5638     0.0000     1.0000 </r>
       <r>   -20.4639     0.0000     1.0000 </r>
       <r>   -20.3639     0.0000     1.0000 </r>
       <r>   -20.2640     0.0000     1.0000 </r>
       <r>   -20.1640     0.0000     1.0000 </r>
       <r>   -20.0640     0.0000     1.0000 </r>
       <r>   -19.9641     0.0000     1.0000 </r>
       <r>   -19.8641     0.0000     1.0000 </r>
       <r>   -19.7642     0.0000     1.0000 </r>
       <r>   -19.6642     0.0000     1.0000 </r>
       <r>   -19.5642     0.0000     1.0000 </r>
       <r>   -19.4643     0.0000     1.0000 </r>
       <r>   -19.3643     0.0000     1.0000 </r>
       <r>   -19.2643     0.0000     1.0000 </r>
       <r>   -19.1644     0.0000     1.0000 </r>
       <r>   -19.0644     0.0000     1.0000 </r>
       <r>   -18.9645     0.0000     1.0000 </r>
       <r>   -18.8645     0.0000     1.0000 </r>
       <r>   -18.7645     0.0000     1.0000 </r>
       <r>   -18.6646     0.0000     1.0000 </r>
       <r>   -18.5646     0.0000     1.0000 </r>
       <r>   -18.4647     0.0000     1.0000 </r>
       <r>   -18.3647     0.0000     1.0000 </r>
       <r>   -18.2647     0.0000     1.0000 </r>
       <r>   -18.1648     0.0000     1.0000 </r>
       <r>   -18.0648     0.0000     1.0000 </r>
       <r>   -17.9648     0.0000     1.0000 </r>
       <r>   -17.8649     0.0000     1.0000 </r>
       <r>   -17.7649     0.0000     1.0000 </r>
       <r>   -17.6650     0.0000     1.0000 </r>
       <r>   -17.5650     0.0000     1.0000 </r>
       <r>   -17.4650     0.0000     1.0000 </r>
       <r>   -17.3651     0.0000     1.0000 </r>
       <r>   -17.2651     0.0000     1.0000 </r>
       <r>   -17.1652     0.0000     1.0000 </r>
       <r>   -17.0652     0.0000     1.0000 </r>
       <r>   -16.9652     0.0000     1.0000 </r>
       <r>   -16.8653     0.0000     1.0000 </r>
       <r>   -16.7653     0.0000     1.0000 </r>
       <r>   -16.6654     0.0000     1.0000 </r>
       <r>   -16.5654     0.0000     1.0000 </r>
       <r>   -16.4654     0.0000     1.0000 </r>
       <r>   -16.3655     0.0000     1.0000 </r>
       <r>   -16.2655     0.0000     1.0000 </r>
       <r>   -16.1655     0.0000     1.0000 </r>
       <r>   -16.0656     0.0000     1.0000 </r>
       <r>   -15.9656     0.0000     1.0000 </r>
       <r>   -15.8657     0.0000     1.0000 </r>
       <r>   -15.7657     0.0000     1.0000 </r>
       <r>   -15.6657     0.0000     1.0000 </r>
       <r>   -15.5658     0.0000     1.0000 </r>
       <r>   -15.4658     0.0000     1.0000 </r>
       <r>   -15.3659     0.0000     1.0000 </r>
       <r>   -15.2659     0.0000     1.0000 </r>
       <r>   -15.1659     0.0000     1.0000 </r>
       <r>   -15.0660     0.0000     1.0000 </r>
       <r>   -14.9660     0.0000     1.0000 </r>
       <r>   -14.8660     0.0000     1.0000 </r>
       <r>   -14.7661     0.0000     1.0000 </r>
       <r>   -14.6661     0.0000     1.0000 </r>
       <r>   -14.5662     0.0000     1.0000 </r>
       <r>   -14.4662     0.0000     1.0000 </r>
       <r>   -14.3662     0.0000     1.0000 </r>
       <r>   -14.2663     0.0000     1.0000 </r>
       <r>   -14.1663     0.0000     1.0000 </r>
       <r>   -14.0664     0.0000     1.0000 </r>
       <r>   -13.9664     0.0000     1.0000 </r>
       <r>   -13.8664     0.0000     1.0000 </r>
       <r>   -13.7665     0.0000     1.0000 </r>
       <r>   -13.6665     0.0000     1.0000 </r>
       <r>   -13.5666     0.0002     1.0000 </r>
       <r>   -13.4666     0.0036     1.0004 </r>
       <r>   -13.3666     0.0356     1.0039 </r>
       <r>   -13.2667     0.2164     1.0256 </r>
       <r>   -13.1667     0.8131     1.1069 </r>
       <r>   -13.0667     1.8899     1.2958 </r>
       <r>   -12.9668     2.7192     1.5676 </r>
       <r>   -12.8668     2.4228     1.8098 </r>
       <r>   -12.7669     1.3367     1.9434 </r>
       <r>   -12.6669     0.4564     1.9890 </r>
       <r>   -12.5669     0.0963     1.9986 </r>
       <r>   -12.4670     0.0126     1.9999 </r>
       <r>   -12.3670     0.0010     2.0000 </r>
       <r>   -12.2671     0.0000     2.0000 </r>
       <r>   -12.1671     0.0000     2.0000 </r>
       <r>   -12.0671     0.0000     2.0000 </r>
       <r>   -11.9672     0.0000     2.0000 </r>
       <r>   -11.8672     0.0000     2.0000 </r>
       <r>   -11.7672     0.0000     2.0000 </r>
       <r>   -11.6673     0.0000     2.0000 </r>
       <r>   -11.5673     0.0000     2.0000 </r>
       <r>   -11.4674     0.0000     2.0000 </r>
       <r>   -11.3674     0.0000     2.0000 </r>
       <r>   -11.2674     0.0000     2.0000 </r>
       <r>   -11.1675     0.0000     2.0000 </r>
       <r>   -11.0675     0.0000     2.0000 </r>
       <r>   -10.9676     0.0000     2.0000 </r>
       <r>   -10.8676     0.0000     2.0000 </r>
       <r>   -10.7676     0.0000     2.0000 </r>
       <r>   -10.6677     0.0000     2.0000 </r>
       <r>   -10.5677     0.0000     2.0000 </r>
       <r>   -10.4678     0.0000     2.0000 </r>
       <r>   -10.3678     0.0000     2.0000 </r>
       <r>   -10.2678     0.0000     2.0000 </r>
       <r>   -10.1679     0.0000     2.0000 </r>
       <r>   -10.0679     0.0000     2.0000 </r>
       <r>    -9.9679     0.0000     2.0000 </r>
       <r>    -9.8680     0.0000     2.0000 </r>
       <r>    -9.7680     0.0007     2.0001 </r>
       <r>    -9.6681     0.0092     2.0010 </r>
       <r>    -9.5681     0.0754     2.0085 </r>
       <r>    -9.4681     0.3809     2.0466 </r>
       <r>    -9.3682     1.1900     2.1656 </r>
       <r>    -9.2682     2.3002     2.3955 </r>
       <r>    -9.1683     2.7530     2.6707 </r>
       <r>    -9.0683     2.0405     2.8746 </r>
       <r>    -8.9683     0.9363     2.9682 </r>
       <r>    -8.8684     0.2658     2.9948 </r>
       <r>    -8.7684     0.0466     2.9995 </r>
       <r>    -8.6684     0.0050     3.0000 </r>
       <r>    -8.5685     0.0003     3.0000 </r>
       <r>    -8.4685     0.0000     3.0000 </r>
       <r>    -8.3686     0.0000     3.0000 </r>
       <r>    -8.2686     0.0000     3.0000 </r>
       <r>    -8.1686     0.0000     3.0000 </r>
       <r>    -8.0687     0.0000     3.0000 </r>
       <r>    -7.9687     0.0000     3.0000 </r>
       <r>    -7.8688     0.0000     3.0000 </r>
       <r>    -7.7688     0.0000     3.0000 </r>
       <r>    -7.6688     0.0008     3.0001 </r>
       <r>    -7.5689     0.0101     3.0011 </r>
       <r>    -7.4689     0.0812     3.0092 </r>
       <r>    -7.3689     0.4025     3.0494 </r>
       <r>    -7.2690     1.2333     3.1727 </r>
       <r>    -7.1690     2.3384     3.4065 </r>
       <r>    -7.0691     2.7453     3.6809 </r>
       <r>    -6.9691     1.9959     3.8804 </r>
       <r>    -6.8691     0.8983     3.9702 </r>
       <r>    -6.7692     0.2501     3.9952 </r>
       <r>    -6.6692     0.0430     3.9995 </r>
       <r>    -6.5693     0.0046     4.0000 </r>
       <r>    -6.4693     0.0003     4.0000 </r>
       <r>    -6.3693     0.0000     4.0000 </r>
       <r>    -6.2694     0.0000     4.0000 </r>
       <r>    -6.1694     0.0000     4.0000 </r>
       <r>    -6.0695     0.0000     4.0000 </r>
       <r>    -5.9695     0.0000     4.0000 </r>
       <r>    -5.8695     0.0000     4.0000 </r>
       <r>    -5.7696     0.0000     4.0000 </r>
       <r>    -5.6696     0.0000     4.0000 </r>
       <r>    -5.5696     0.0000     4.0000 </r>
       <r>    -5.4697     0.0000     4.0000 </r>
       <r>    -5.3697     0.0000     4.0000 </r>
       <r>    -5.2698     0.0000     4.0000 </r>
       <r>    -5.1698     0.0000     4.0000 </r>
       <r>    -5.0698     0.0000     4.0000 </r>
       <r>    -4.9699     0.0000     4.0000 </r>
       <r>    -4.8699     0.0000     4.0000 </r>
       <r>    -4.7700     0.0000     4.0000 </r>
       <r>    -4.6700     0.0000     4.0000 </r>
       <r>    -4.5700     0.0000     4.0000 </r>
       <r>    -4.4701     0.0000     4.0000 </r>
       <r>    -4.3701     0.0000     4.0000 </r>
       <r>    -4.2701     0.0000     4.0000 </r>
       <r>    -4.1702     0.0000     4.0000 </r>
       <r>    -4.0702     0.0000     4.0000 </r>
       <r>    -3.9703     0.0000     4.0000 </r>
       <r>    -3.8703     0.0000     4.0000 </r>
       <r>    -3.7703     0.0000     4.0000 </r>
       <r>    -3.6704     0.0000     4.0000 </r>
       <r>    -3.5704     0.0000     4.0000 </r>
       <r>    -3.4705     0.0000     4.0000 </r>
       <r>    -3.3705     0.0000     4.0000 </r>
       <r>    -3.2705     0.0000     4.0000 </r>
       <r>    -3.1706     0.0000     4.0000 </r>
       <r>    -3.0706     0.0000     4.0000 </r>
       <r>    -2.9707     0.0000     4.0000 </r>
       <r>    -2.8707     0.0000     4.0000 </r>
       <r>    -2.7707     0.0000     4.0000 </r>
       <r>    -2.6708     0.0000     4.0000 </r>
       <r>    -2.5708     0.0000     4.0000 </r>
       <r>    -2.4708     0.0000     4.0000 </r>
       <r>    -2.3709     0.0000     4.0000 </r>
       <r>    -2.2709     0.0000     4.0000 </r>
       <r>    -2.1710     0.0000     4.0000 </r>
       <r>    -2.0710     0.0000     4.0000 </r>
       <r>    -1.9710     0.0000     4.0000 </r>
       <r>    -1.8711     0.0000     4.0000 </r>
       <r>    -1.7711     0.0000     4.0000 </r>
       <r>    -1.6712     0.0000     4.0000 </r>
       <r>    -1.5712     0.0003     4.0000 </r>
       <r>    -1.4712     0.0041     4.0004 </r>
       <r>    -1.3713     0.0395     4.0044 </r>
       <r>    -1.2713     0.2342     4.0278 </r>
       <r>    -1.1713     0.8588     4.1136 </r>
       <r>    -1.0714     1.9478     4.3083 </r>
       <r>    -0.9714     2.7348     4.5817 </r>
       <r>    -0.8715     2.3778     4.8194 </r>
       <r>    -0.7715     1.2802     4.9474 </r>
       <r>    -0.6715     0.4265     4.9900 </r>
       <r>    -0.5716     0.0878     4.9988 </r>
       <r>    -0.4716     0.0112     4.9999 </r>
       <r>    -0.3717     0.0009     5.0000 </r>
       <r>    -0.2717     0.0000     5.0000 </r>
       <r>    -0.1717     0.0000     5.0000 </r>
       <r>    -0.0718     0.0002     5.0000 </r>
       <r>     0.0282     0.0039     5.0004 </r>
       <r>     0.1281     0.0380     5.0042 </r>
       <r>     0.2281     0.2291     5.0271 </r>
       <r>     0.3281     0.8627     5.1134 </r>
       <r>     0.4280     2.0737     5.3206 </r>
       <r>     0.5280     3.3526     5.6558 </r>
       <r>     0.6280     4.0162     6.0572 </r>
       <r>     0.7279     3.9095     6.4480 </r>
       <r>     0.8279     3.0357     6.7515 </r>
       <r>     0.9278     1.6938     6.9208 </r>
       <r>     1.0278     0.6237     6.9832 </r>
       <r>     1.1278     0.1454     6.9977 </r>
       <r>     1.2277     0.0211     6.9998 </r>
       <r>     1.3277     0.0019     7.0000 </r>
       <r>     1.4276     0.0001     7.0000 </r>
       <r>     1.5276     0.0000     7.0000 </r>
       <r>     1.6276     0.0000     7.0000 </r>
       <r>     1.7275     0.0000     7.0000 </r>
       <r>     1.8275     0.0000     7.0000 </r>
       <r>     1.9275     0.0000     7.0000 </r>
       <r>     2.0274     0.0000     7.0000 </r>
       <r>     2.1274     0.0000     7.0000 </r>
       <r>     2.2273     0.0000     7.0000 </r>
       <r>     2.3273     0.0000     7.0000 </r>
       <r>     2.4273     0.0000     7.0000 </r>
       <r>     2.5272     0.0000     7.0000 </r>
       <r>     2.6272     0.0000     7.0000 </r>
       <r>     2.7271     0.0000     7.0000 </r>
      </set>
     </set>
    </array>
   </total>
  </dos>
 </calculation>
 <structure name="finalpos" >
  <crystal>
   <varray name="basis" >
    <v>      10.00000000       0.00000000       0.00000000 </v>
    <v>       0.00000000      10.00000000       0.00000000 </v>
    <v>       0.00000000       0.00000000      10.00000000 </v>
   </varray>
   <i name="volume">   1000.00000000 </i>
   <varray name="rec_basis" >
    <v>       0.10000000       0.00000000       0.00000000 </v>
    <v>       0.00000000       0.10000000       0.00000000 </v>
    <v>       0.00000000       0.00000000       0.10000000 </v>
   </varray>
  </crystal>
  <varray name="positions" >
   <v>       0.50000000       0.57659762       0.47005122 </v>
   <v>       0.50000000       0.42340238       0.47005122 </v>
   <v>       0.50000000       0.50000000       0.53008210 </v>
  </varray>
 </structure>
</modeling>
