   4   4   0   0
  0.2500000E+03  0.1000000E-08  0.1000000E-08  0.1000000E-08  0.5000000E-15
  1.000000000000000E-004
  CAR 
 unknown system                          
      2.92201342    -20.46136004  301     -6.04146084      1.00000000
    -20.461  0.0000E+00  0.0000E+00  0.0000E+00  0.0000E+00
    -20.383  0.0000E+00  0.0000E+00  0.0000E+00  0.0000E+00
    -20.305  0.0000E+00  0.0000E+00  0.0000E+00  0.0000E+00
    -20.228  0.0000E+00  0.0000E+00  0.0000E+00  0.0000E+00
    -20.150  0.0000E+00  0.0000E+00  0.0000E+00  0.0000E+00
    -20.072  0.0000E+00  0.0000E+00  0.0000E+00  0.0000E+00
    -19.994  0.0000E+00  0.0000E+00  0.0000E+00  0.0000E+00
    -19.916  0.0000E+00  0.0000E+00  0.0000E+00  0.0000E+00
    -19.838  0.0000E+00  0.0000E+00  0.0000E+00  0.0000E+00
    -19.760  0.0000E+00  0.0000E+00  0.0000E+00  0.0000E+00
    -19.682  0.0000E+00  0.0000E+00  0.0000E+00  0.0000E+00
    -19.604  0.5341E-15  0.5341E-15  0.4163E-16  0.4163E-16
    -19.526  0.4042E-13  0.4068E-13  0.3192E-14  0.3213E-14
    -19.448  0.2360E-11  0.2374E-11  0.1872E-12  0.1882E-12
    -19.370  0.1021E-09  0.1026E-09  0.8143E-11  0.8187E-11
    -19.292  0.3272E-08  0.3288E-08  0.2632E-09  0.2645E-09
    -19.214  0.7778E-07  0.7813E-07  0.6326E-08  0.6354E-08
    -19.136  0.1372E-05  0.1377E-05  0.1132E-06  0.1137E-06
    -19.058  0.1794E-04  0.1801E-04  0.1512E-05  0.1517E-05
    -18.980  0.1743E-03  0.1748E-03  0.1510E-04  0.1514E-04
    -18.902  0.1257E-02  0.1260E-02  0.1131E-03  0.1134E-03
    -18.825  0.6733E-02  0.6748E-02  0.6379E-03  0.6394E-03
    -18.747  0.2680E-01  0.2685E-01  0.2727E-02  0.2732E-02
    -18.669  0.7930E-01  0.7940E-01  0.8908E-02  0.8921E-02
    -18.591  0.1744E+00  0.1746E+00  0.2250E-01  0.2253E-01
    -18.513  0.2852E+00  0.2854E+00  0.4473E-01  0.4477E-01
    -18.435  0.3469E+00  0.3469E+00  0.7177E-01  0.7181E-01
    -18.357  0.3137E+00  0.3136E+00  0.9622E-01  0.9625E-01
    -18.279  0.2110E+00  0.2108E+00  0.1127E+00  0.1127E+00
    -18.201  0.1055E+00  0.1054E+00  0.1209E+00  0.1209E+00
    -18.123  0.3923E-01  0.3917E-01  0.1240E+00  0.1240E+00
    -18.045  0.1084E-01  0.1082E-01  0.1248E+00  0.1248E+00
    -17.967  0.2227E-02  0.2221E-02  0.1250E+00  0.1250E+00
    -17.889  0.3398E-03  0.3387E-03  0.1250E+00  0.1250E+00
    -17.811  0.3850E-04  0.3836E-04  0.1250E+00  0.1250E+00
    -17.733  0.3238E-05  0.3226E-05  0.1250E+00  0.1250E+00
    -17.655  0.2021E-06  0.2013E-06  0.1250E+00  0.1250E+00
    -17.577  0.9362E-08  0.9317E-08  0.1250E+00  0.1250E+00
    -17.499  0.3215E-09  0.3198E-09  0.1250E+00  0.1250E+00
    -17.422  0.8185E-11  0.8140E-11  0.1250E+00  0.1250E+00
    -17.344  0.1545E-12  0.1535E-12  0.1250E+00  0.1250E+00
    -17.266  0.2137E-14  0.2137E-14  0.1250E+00  0.1250E+00
    -17.188  0.0000E+00  0.0000E+00  0.1250E+00  0.1250E+00
    -17.110  0.0000E+00  0.0000E+00  0.1250E+00  0.1250E+00
    -17.032  0.0000E+00  0.0000E+00  0.1250E+00  0.1250E+00
    -16.954  0.0000E+00  0.0000E+00  0.1250E+00  0.1250E+00
    -16.876  0.0000E+00  0.0000E+00  0.1250E+00  0.1250E+00
    -16.798  0.0000E+00  0.0000E+00  0.1250E+00  0.1250E+00
    -16.720  0.0000E+00  0.0000E+00  0.1250E+00  0.1250E+00
    -16.642  0.0000E+00  0.0000E+00  0.1250E+00  0.1250E+00
    -16.564  0.0000E+00  0.0000E+00  0.1250E+00  0.1250E+00
    -16.486  0.0000E+00  0.0000E+00  0.1250E+00  0.1250E+00
    -16.408  0.0000E+00  0.0000E+00  0.1250E+00  0.1250E+00
    -16.330  0.0000E+00  0.0000E+00  0.1250E+00  0.1250E+00
    -16.252  0.0000E+00  0.0000E+00  0.1250E+00  0.1250E+00
    -16.174  0.0000E+00  0.0000E+00  0.1250E+00  0.1250E+00
    -16.096  0.0000E+00  0.0000E+00  0.1250E+00  0.1250E+00
    -16.019  0.0000E+00  0.0000E+00  0.1250E+00  0.1250E+00
    -15.941  0.0000E+00  0.0000E+00  0.1250E+00  0.1250E+00
    -15.863  0.0000E+00  0.0000E+00  0.1250E+00  0.1250E+00
    -15.785  0.0000E+00  0.0000E+00  0.1250E+00  0.1250E+00
    -15.707  0.0000E+00  0.0000E+00  0.1250E+00  0.1250E+00
    -15.629  0.0000E+00  0.0000E+00  0.1250E+00  0.1250E+00
    -15.551  0.0000E+00  0.0000E+00  0.1250E+00  0.1250E+00
    -15.473  0.0000E+00  0.0000E+00  0.1250E+00  0.1250E+00
    -15.395  0.0000E+00  0.0000E+00  0.1250E+00  0.1250E+00
    -15.317  0.0000E+00  0.0000E+00  0.1250E+00  0.1250E+00
    -15.239  0.0000E+00  0.0000E+00  0.1250E+00  0.1250E+00
    -15.161  0.0000E+00  0.0000E+00  0.1250E+00  0.1250E+00
    -15.083  0.0000E+00  0.0000E+00  0.1250E+00  0.1250E+00
    -15.005  0.3561E-15  0.3561E-15  0.1250E+00  0.1250E+00
    -14.927  0.3116E-13  0.3125E-13  0.1250E+00  0.1250E+00
    -14.849  0.1850E-11  0.1854E-11  0.1250E+00  0.1250E+00
    -14.771  0.8151E-10  0.8167E-10  0.1250E+00  0.1250E+00
    -14.693  0.2662E-08  0.2667E-08  0.1250E+00  0.1250E+00
    -14.616  0.6446E-07  0.6456E-07  0.1250E+00  0.1250E+00
    -14.538  0.1158E-05  0.1160E-05  0.1250E+00  0.1250E+00
    -14.460  0.1543E-04  0.1545E-04  0.1250E+00  0.1250E+00
    -14.382  0.1527E-03  0.1528E-03  0.1250E+00  0.1250E+00
    -14.304  0.1122E-02  0.1123E-02  0.1251E+00  0.1251E+00
    -14.226  0.6120E-02  0.6125E-02  0.1256E+00  0.1256E+00
    -14.148  0.2481E-01  0.2483E-01  0.1275E+00  0.1275E+00
    -14.070  0.7478E-01  0.7482E-01  0.1333E+00  0.1333E+00
    -13.992  0.1675E+00  0.1676E+00  0.1464E+00  0.1464E+00
    -13.914  0.2790E+00  0.2791E+00  0.1681E+00  0.1682E+00
    -13.836  0.3457E+00  0.3457E+00  0.1951E+00  0.1951E+00
    -13.758  0.3184E+00  0.3184E+00  0.2199E+00  0.2199E+00
    -13.680  0.2181E+00  0.2181E+00  0.2369E+00  0.2369E+00
    -13.602  0.1111E+00  0.1111E+00  0.2456E+00  0.2456E+00
    -13.524  0.4208E-01  0.4205E-01  0.2488E+00  0.2489E+00
    -13.446  0.1185E-01  0.1184E-01  0.2498E+00  0.2498E+00
    -13.368  0.2478E-02  0.2476E-02  0.2500E+00  0.2500E+00
    -13.290  0.3851E-03  0.3847E-03  0.2500E+00  0.2500E+00
    -13.213  0.4445E-04  0.4439E-04  0.2500E+00  0.2500E+00
    -13.135  0.3809E-05  0.3803E-05  0.2500E+00  0.2500E+00
    -13.057  0.2422E-06  0.2418E-06  0.2500E+00  0.2500E+00
    -12.979  0.1143E-07  0.1141E-07  0.2500E+00  0.2500E+00
    -12.901  0.4438E-09  0.4433E-09  0.2500E+00  0.2500E+00
    -12.823  0.1521E-08  0.1529E-08  0.2500E+00  0.2500E+00
    -12.745  0.3848E-07  0.3865E-07  0.2500E+00  0.2500E+00
    -12.667  0.7268E-06  0.7298E-06  0.2500E+00  0.2500E+00
    -12.589  0.1019E-04  0.1022E-04  0.2500E+00  0.2500E+00
    -12.511  0.1060E-03  0.1063E-03  0.2500E+00  0.2500E+00
    -12.433  0.8184E-03  0.8207E-03  0.2501E+00  0.2501E+00
    -12.355  0.4695E-02  0.4706E-02  0.2504E+00  0.2504E+00
    -12.277  0.2001E-01  0.2005E-01  0.2520E+00  0.2520E+00
    -12.199  0.6340E-01  0.6349E-01  0.2569E+00  0.2570E+00
    -12.121  0.1493E+00  0.1495E+00  0.2686E+00  0.2686E+00
    -12.043  0.2614E+00  0.2616E+00  0.2890E+00  0.2890E+00
    -11.965  0.3404E+00  0.3405E+00  0.3155E+00  0.3155E+00
    -11.887  0.3296E+00  0.3295E+00  0.3412E+00  0.3412E+00
    -11.810  0.2373E+00  0.2372E+00  0.3597E+00  0.3597E+00
    -11.732  0.1271E+00  0.1269E+00  0.3696E+00  0.3696E+00
    -11.654  0.5059E-01  0.5052E-01  0.3735E+00  0.3735E+00
    -11.576  0.1497E-01  0.1494E-01  0.3747E+00  0.3747E+00
    -11.498  0.3293E-02  0.3285E-02  0.3750E+00  0.3750E+00
    -11.420  0.5380E-03  0.5365E-03  0.3750E+00  0.3750E+00
    -11.342  0.6529E-04  0.6508E-04  0.3750E+00  0.3750E+00
    -11.264  0.5883E-05  0.5861E-05  0.3750E+00  0.3750E+00
    -11.186  0.3934E-06  0.3918E-06  0.3750E+00  0.3750E+00
    -11.108  0.1952E-07  0.1943E-07  0.3750E+00  0.3750E+00
    -11.030  0.7181E-09  0.7145E-09  0.3750E+00  0.3750E+00
    -10.952  0.1959E-10  0.1948E-10  0.3750E+00  0.3750E+00
    -10.874  0.3960E-12  0.3937E-12  0.3750E+00  0.3750E+00
    -10.796  0.6054E-14  0.6054E-14  0.3750E+00  0.3750E+00
    -10.718  0.0000E+00  0.0000E+00  0.3750E+00  0.3750E+00
    -10.640  0.0000E+00  0.0000E+00  0.3750E+00  0.3750E+00
    -10.562  0.0000E+00  0.0000E+00  0.3750E+00  0.3750E+00
    -10.484  0.0000E+00  0.0000E+00  0.3750E+00  0.3750E+00
    -10.407  0.0000E+00  0.0000E+00  0.3750E+00  0.3750E+00
    -10.329  0.0000E+00  0.0000E+00  0.3750E+00  0.3750E+00
    -10.251  0.0000E+00  0.0000E+00  0.3750E+00  0.3750E+00
    -10.173  0.0000E+00  0.0000E+00  0.3750E+00  0.3750E+00
    -10.095  0.0000E+00  0.0000E+00  0.3750E+00  0.3750E+00
    -10.017  0.0000E+00  0.0000E+00  0.3750E+00  0.3750E+00
     -9.939  0.0000E+00  0.0000E+00  0.3750E+00  0.3750E+00
     -9.861  0.0000E+00  0.0000E+00  0.3750E+00  0.3750E+00
     -9.783  0.0000E+00  0.0000E+00  0.3750E+00  0.3750E+00
     -9.705  0.0000E+00  0.0000E+00  0.3750E+00  0.3750E+00
     -9.627  0.0000E+00  0.0000E+00  0.3750E+00  0.3750E+00
     -9.549  0.0000E+00  0.0000E+00  0.3750E+00  0.3750E+00
     -9.471  0.0000E+00  0.0000E+00  0.3750E+00  0.3750E+00
     -9.393  0.0000E+00  0.0000E+00  0.3750E+00  0.3750E+00
     -9.315  0.0000E+00  0.0000E+00  0.3750E+00  0.3750E+00
     -9.237  0.0000E+00  0.0000E+00  0.3750E+00  0.3750E+00
     -9.159  0.0000E+00  0.0000E+00  0.3750E+00  0.3750E+00
     -9.081  0.0000E+00  0.0000E+00  0.3750E+00  0.3750E+00
     -9.004  0.0000E+00  0.0000E+00  0.3750E+00  0.3750E+00
     -8.926  0.0000E+00  0.0000E+00  0.3750E+00  0.3750E+00
     -8.848  0.0000E+00  0.0000E+00  0.3750E+00  0.3750E+00
     -8.770  0.0000E+00  0.0000E+00  0.3750E+00  0.3750E+00
     -8.692  0.0000E+00  0.0000E+00  0.3750E+00  0.3750E+00
     -8.614  0.0000E+00  0.0000E+00  0.3750E+00  0.3750E+00
     -8.536  0.0000E+00  0.0000E+00  0.3750E+00  0.3750E+00
     -8.458  0.0000E+00  0.0000E+00  0.3750E+00  0.3750E+00
     -8.380  0.0000E+00  0.0000E+00  0.3750E+00  0.3750E+00
     -8.302  0.0000E+00  0.0000E+00  0.3750E+00  0.3750E+00
     -8.224  0.0000E+00  0.0000E+00  0.3750E+00  0.3750E+00
     -8.146  0.2671E-14  0.2671E-14  0.3750E+00  0.3750E+00
     -8.068  0.1932E-12  0.1946E-12  0.3750E+00  0.3750E+00
     -7.990  0.1060E-10  0.1066E-10  0.3750E+00  0.3750E+00
     -7.912  0.4307E-09  0.4331E-09  0.3750E+00  0.3750E+00
     -7.834  0.1297E-07  0.1304E-07  0.3750E+00  0.3750E+00
     -7.756  0.2898E-06  0.2911E-06  0.3750E+00  0.3750E+00
     -7.678  0.4801E-05  0.4822E-05  0.3750E+00  0.3750E+00
     -7.601  0.5904E-04  0.5926E-04  0.3750E+00  0.3750E+00
     -7.523  0.5389E-03  0.5407E-03  0.3750E+00  0.3750E+00
     -7.445  0.3653E-02  0.3664E-02  0.3753E+00  0.3753E+00
     -7.367  0.1840E-01  0.1844E-01  0.3768E+00  0.3768E+00
     -7.289  0.6884E-01  0.6897E-01  0.3821E+00  0.3821E+00
     -7.211  0.1915E+00  0.1918E+00  0.3971E+00  0.3971E+00
     -7.133  0.3960E+00  0.3963E+00  0.4279E+00  0.4280E+00
     -7.055  0.6088E+00  0.6091E+00  0.4754E+00  0.4755E+00
     -6.977  0.6962E+00  0.6962E+00  0.5296E+00  0.5297E+00
     -6.899  0.5920E+00  0.5917E+00  0.5758E+00  0.5758E+00
     -6.821  0.3743E+00  0.3740E+00  0.6050E+00  0.6050E+00
     -6.743  0.1760E+00  0.1758E+00  0.6187E+00  0.6187E+00
     -6.665  0.6152E-01  0.6141E-01  0.6235E+00  0.6235E+00
     -6.587  0.1598E-01  0.1595E-01  0.6247E+00  0.6247E+00
     -6.509  0.3086E-02  0.3077E-02  0.6250E+00  0.6250E+00
     -6.431  0.4426E-03  0.4411E-03  0.6250E+00  0.6250E+00
     -6.353  0.4713E-04  0.4695E-04  0.6250E+00  0.6250E+00
     -6.275  0.3726E-05  0.3710E-05  0.6250E+00  0.6250E+00
     -6.198  0.2186E-06  0.2176E-06  0.6250E+00  0.6250E+00
     -6.120  0.9513E-08  0.9463E-08  0.6250E+00  0.6250E+00
     -6.042  0.3070E-09  0.3052E-09  0.6250E+00  0.6250E+00
     -5.964  0.7343E-11  0.7297E-11  0.6250E+00  0.6250E+00
     -5.886  0.1300E-12  0.1293E-12  0.6250E+00  0.6250E+00
     -5.808  0.1780E-14  0.1780E-14  0.6250E+00  0.6250E+00
     -5.730  0.0000E+00  0.0000E+00  0.6250E+00  0.6250E+00
     -5.652  0.0000E+00  0.0000E+00  0.6250E+00  0.6250E+00
     -5.574  0.0000E+00  0.0000E+00  0.6250E+00  0.6250E+00
     -5.496  0.0000E+00  0.0000E+00  0.6250E+00  0.6250E+00
     -5.418  0.0000E+00  0.0000E+00  0.6250E+00  0.6250E+00
     -5.340  0.0000E+00  0.0000E+00  0.6250E+00  0.6250E+00
     -5.262  0.0000E+00  0.0000E+00  0.6250E+00  0.6250E+00
     -5.184  0.0000E+00  0.0000E+00  0.6250E+00  0.6250E+00
     -5.106  0.0000E+00  0.0000E+00  0.6250E+00  0.6250E+00
     -5.028  0.0000E+00  0.0000E+00  0.6250E+00  0.6250E+00
     -4.950  0.0000E+00  0.0000E+00  0.6250E+00  0.6250E+00
     -4.872  0.0000E+00  0.0000E+00  0.6250E+00  0.6250E+00
     -4.794  0.0000E+00  0.0000E+00  0.6250E+00  0.6250E+00
     -4.717  0.0000E+00  0.0000E+00  0.6250E+00  0.6250E+00
     -4.639  0.0000E+00  0.0000E+00  0.6250E+00  0.6250E+00
     -4.561  0.0000E+00  0.0000E+00  0.6250E+00  0.6250E+00
     -4.483  0.0000E+00  0.0000E+00  0.6250E+00  0.6250E+00
     -4.405  0.0000E+00  0.0000E+00  0.6250E+00  0.6250E+00
     -4.327  0.0000E+00  0.0000E+00  0.6250E+00  0.6250E+00
     -4.249  0.0000E+00  0.0000E+00  0.6250E+00  0.6250E+00
     -4.171  0.0000E+00  0.0000E+00  0.6250E+00  0.6250E+00
     -4.093  0.0000E+00  0.0000E+00  0.6250E+00  0.6250E+00
     -4.015  0.0000E+00  0.0000E+00  0.6250E+00  0.6250E+00
     -3.937  0.0000E+00  0.0000E+00  0.6250E+00  0.6250E+00
     -3.859  0.0000E+00  0.0000E+00  0.6250E+00  0.6250E+00
     -3.781  0.0000E+00  0.0000E+00  0.6250E+00  0.6250E+00
     -3.703  0.0000E+00  0.0000E+00  0.6250E+00  0.6250E+00
     -3.625  0.0000E+00  0.0000E+00  0.6250E+00  0.6250E+00
     -3.547  0.0000E+00  0.0000E+00  0.6250E+00  0.6250E+00
     -3.469  0.0000E+00  0.0000E+00  0.6250E+00  0.6250E+00
     -3.391  0.0000E+00  0.0000E+00  0.6250E+00  0.6250E+00
     -3.314  0.0000E+00  0.0000E+00  0.6250E+00  0.6250E+00
     -3.236  0.0000E+00  0.0000E+00  0.6250E+00  0.6250E+00
     -3.158  0.0000E+00  0.0000E+00  0.6250E+00  0.6250E+00
     -3.080  0.0000E+00  0.0000E+00  0.6250E+00  0.6250E+00
     -3.002  0.0000E+00  0.0000E+00  0.6250E+00  0.6250E+00
     -2.924  0.0000E+00  0.0000E+00  0.6250E+00  0.6250E+00
     -2.846  0.0000E+00  0.0000E+00  0.6250E+00  0.6250E+00
     -2.768  0.0000E+00  0.0000E+00  0.6250E+00  0.6250E+00
     -2.690  0.0000E+00  0.0000E+00  0.6250E+00  0.6250E+00
     -2.612  0.0000E+00  0.0000E+00  0.6250E+00  0.6250E+00
     -2.534  0.0000E+00  0.0000E+00  0.6250E+00  0.6250E+00
     -2.456  0.0000E+00  0.0000E+00  0.6250E+00  0.6250E+00
     -2.378  0.0000E+00  0.0000E+00  0.6250E+00  0.6250E+00
     -2.300  0.0000E+00  0.0000E+00  0.6250E+00  0.6250E+00
     -2.222  0.0000E+00  0.0000E+00  0.6250E+00  0.6250E+00
     -2.144  0.0000E+00  0.0000E+00  0.6250E+00  0.6250E+00
     -2.066  0.0000E+00  0.0000E+00  0.6250E+00  0.6250E+00
     -1.988  0.0000E+00  0.0000E+00  0.6250E+00  0.6250E+00
     -1.911  0.0000E+00  0.0000E+00  0.6250E+00  0.6250E+00
     -1.833  0.0000E+00  0.0000E+00  0.6250E+00  0.6250E+00
     -1.755  0.0000E+00  0.0000E+00  0.6250E+00  0.6250E+00
     -1.677  0.0000E+00  0.0000E+00  0.6250E+00  0.6250E+00
     -1.599  0.0000E+00  0.0000E+00  0.6250E+00  0.6250E+00
     -1.521  0.0000E+00  0.0000E+00  0.6250E+00  0.6250E+00
     -1.443  0.1780E-15  0.1780E-15  0.6250E+00  0.6250E+00
     -1.365  0.2003E-13  0.1700E-13  0.6250E+00  0.6250E+00
     -1.287  0.1280E-11  0.1113E-11  0.6250E+00  0.6250E+00
     -1.209  0.6126E-10  0.5405E-10  0.6250E+00  0.6250E+00
     -1.131  0.2180E-08  0.1952E-08  0.6250E+00  0.6250E+00
     -1.053  0.5775E-07  0.5246E-07  0.6250E+00  0.6250E+00
     -0.975  0.1139E-05  0.1049E-05  0.6250E+00  0.6250E+00
     -0.897  0.1675E-04  0.1562E-04  0.6250E+00  0.6250E+00
     -0.819  0.1836E-03  0.1732E-03  0.6250E+00  0.6250E+00
     -0.741  0.1501E-02  0.1432E-02  0.6251E+00  0.6251E+00
     -0.663  0.9155E-02  0.8822E-02  0.6258E+00  0.6258E+00
     -0.585  0.4169E-01  0.4054E-01  0.6291E+00  0.6290E+00
     -0.508  0.1417E+00  0.1389E+00  0.6401E+00  0.6398E+00
     -0.430  0.3599E+00  0.3553E+00  0.6682E+00  0.6675E+00
     -0.352  0.6827E+00  0.6780E+00  0.7214E+00  0.7203E+00
     -0.274  0.9670E+00  0.9654E+00  0.7968E+00  0.7956E+00
     -0.196  0.1023E+01  0.1026E+01  0.8765E+00  0.8756E+00
     -0.118  0.8083E+00  0.8132E+00  0.9395E+00  0.9389E+00
     -0.040  0.4767E+00  0.4809E+00  0.9767E+00  0.9764E+00
      0.038  0.2098E+00  0.2121E+00  0.9930E+00  0.9930E+00
      0.116  0.6898E-01  0.6982E-01  0.9984E+00  0.9984E+00
      0.194  0.1760E-01  0.1782E-01  0.9998E+00  0.9998E+00
      0.272  0.7385E-02  0.7411E-02  0.1000E+01  0.1000E+01
      0.350  0.1911E-01  0.1906E-01  0.1002E+01  0.1002E+01
      0.428  0.6046E-01  0.6028E-01  0.1007E+01  0.1007E+01
      0.506  0.1462E+00  0.1457E+00  0.1018E+01  0.1018E+01
      0.584  0.2677E+00  0.2662E+00  0.1039E+01  0.1039E+01
      0.662  0.3809E+00  0.3772E+00  0.1069E+01  0.1068E+01
      0.740  0.4452E+00  0.4382E+00  0.1103E+01  0.1102E+01
      0.818  0.4633E+00  0.4545E+00  0.1139E+01  0.1138E+01
      0.895  0.4520E+00  0.4463E+00  0.1175E+01  0.1172E+01
      0.973  0.3989E+00  0.4006E+00  0.1206E+01  0.1204E+01
      1.051  0.2936E+00  0.3015E+00  0.1229E+01  0.1227E+01
      1.129  0.1694E+00  0.1782E+00  0.1242E+01  0.1241E+01
      1.207  0.7429E-01  0.8001E-01  0.1248E+01  0.1247E+01
      1.285  0.2442E-01  0.2692E-01  0.1249E+01  0.1249E+01
      1.363  0.5984E-02  0.6755E-02  0.1250E+01  0.1250E+01
      1.441  0.1091E-02  0.1261E-02  0.1250E+01  0.1250E+01
      1.519  0.1478E-03  0.1748E-03  0.1250E+01  0.1250E+01
      1.597  0.1487E-04  0.1801E-04  0.1250E+01  0.1250E+01
      1.675  0.1111E-05  0.1377E-05  0.1250E+01  0.1250E+01
      1.753  0.6154E-07  0.7813E-07  0.1250E+01  0.1250E+01
      1.831  0.2530E-08  0.3288E-08  0.1250E+01  0.1250E+01
      1.909  0.7711E-10  0.1026E-09  0.1250E+01  0.1250E+01
      1.987  0.1742E-11  0.2374E-11  0.1250E+01  0.1250E+01
      2.065  0.2920E-13  0.4077E-13  0.1250E+01  0.1250E+01
      2.143  0.3561E-15  0.5341E-15  0.1250E+01  0.1250E+01
      2.221  0.0000E+00  0.0000E+00  0.1250E+01  0.1250E+01
      2.298  0.0000E+00  0.0000E+00  0.1250E+01  0.1250E+01
      2.376  0.0000E+00  0.0000E+00  0.1250E+01  0.1250E+01
      2.454  0.0000E+00  0.0000E+00  0.1250E+01  0.1250E+01
      2.532  0.0000E+00  0.0000E+00  0.1250E+01  0.1250E+01
      2.610  0.0000E+00  0.0000E+00  0.1250E+01  0.1250E+01
      2.688  0.0000E+00  0.0000E+00  0.1250E+01  0.1250E+01
      2.766  0.0000E+00  0.0000E+00  0.1250E+01  0.1250E+01
      2.844  0.0000E+00  0.0000E+00  0.1250E+01  0.1250E+01
      2.922  0.0000E+00  0.0000E+00  0.1250E+01  0.1250E+01
