    4    4    8    2
  0.2500000E+03  0.1000000E-08  0.1000000E-08  0.1000000E-08  0.5000000E-15
  1.000000000000000E-004
  CAR 
 unknown system                          
   10    1   10
 
  0.0000000E+00  0.0000000E+00  0.0000000E+00  0.1000000E+01
   1      -18.461245    -18.461360
   2      -13.857679    -13.857721
   3      -11.973880    -11.973993
   4       -7.019617     -7.019742
   5       -7.019617     -7.019742
   6       -0.282824     -0.279089
   7       -0.246714     -0.246898
   8       -0.246714     -0.246898
   9        0.657357      0.657512
  10        0.915875      0.922013
