       N       E                     dE             d eps       ncg     rms          rms(c)
DAV:   1     0.323883124610E+02    0.32388E+02   -0.22675E+03    64   0.372E+02
DAV:   2    -0.163724802107E+02   -0.48761E+02   -0.47865E+02    60   0.103E+02
DAV:   3    -0.222206411311E+02   -0.58482E+01   -0.58466E+01    80   0.393E+01
DAV:   4    -0.222645444967E+02   -0.43903E-01   -0.43857E-01    62   0.256E+00
DAV:   5    -0.222646089331E+02   -0.64436E-04   -0.64419E-04    54   0.114E-01    0.129E+01
DAV:   6    -0.111807215925E+02    0.11084E+02   -0.23383E+01    50   0.289E+01    0.516E+00
DAV:   7    -0.199310066707E+02   -0.87503E+01   -0.10746E+01    42   0.161E+01    0.217E+00
DAV:   8    -0.218522964888E+02   -0.19213E+01   -0.53179E-01    44   0.444E+00    0.123E+00
DAV:   9    -0.227558931115E+02   -0.90360E+00   -0.33659E-01    44   0.299E+00    0.450E-01
DAV:  10    -0.228883458474E+02   -0.13245E+00   -0.85385E-02    42   0.141E+00    0.163E-01
DAV:  11    -0.228933219439E+02   -0.49761E-02   -0.31080E-03    44   0.455E-01    0.109E-01
DAV:  12    -0.228993168754E+02   -0.59949E-02   -0.36844E-03    40   0.372E-01    0.717E-02
DAV:  13    -0.229034824832E+02   -0.41656E-02   -0.80996E-04    40   0.191E-01    0.467E-02
DAV:  14    -0.229092801471E+02   -0.57977E-02   -0.13836E-03    40   0.208E-01    0.345E-02
DAV:  15    -0.229109747416E+02   -0.16946E-02   -0.41638E-04    44   0.134E-01    0.170E-02
DAV:  16    -0.229127533791E+02   -0.17786E-02   -0.23207E-04    40   0.866E-02    0.114E-02
DAV:  17    -0.229141868021E+02   -0.14334E-02   -0.23359E-04    44   0.799E-02    0.753E-03
DAV:  18    -0.229145008470E+02   -0.31404E-03   -0.44143E-05    40   0.492E-02    0.398E-03
DAV:  19    -0.229147934875E+02   -0.29264E-03   -0.19979E-05    48   0.294E-02    0.212E-03
DAV:  20    -0.229148411401E+02   -0.47653E-04   -0.48571E-06    44   0.168E-02
   1 F= -.22914841E+02 E0= -.22914841E+02  d E =-.229148E+02  mag=     0.0000
       N       E                     dE             d eps       ncg     rms          rms(c)
DAV:   1    -0.223371276533E+02    0.57767E+00   -0.20485E+01    48   0.376E+01    0.187E+00
DAV:   2    -0.222425208300E+02    0.94607E-01   -0.31724E-01    64   0.478E+00    0.976E-01
DAV:   3    -0.222233487401E+02    0.19172E-01   -0.25620E-01    56   0.326E+00    0.350E-01
DAV:   4    -0.222188908414E+02    0.44579E-02   -0.23616E-02    56   0.978E-01    0.126E-01
DAV:   5    -0.222188969397E+02   -0.60983E-05   -0.80752E-04    40   0.205E-01
   2 F= -.22218897E+02 E0= -.22218897E+02  d E =0.695944E+00  mag=     0.0000
       N       E                     dE             d eps       ncg     rms          rms(c)
DAV:   1    -0.230150592063E+02   -0.79617E+00   -0.17370E+01    44   0.354E+01    0.168E+00
DAV:   2    -0.229380385540E+02    0.77021E-01   -0.28965E-01    58   0.433E+00    0.869E-01
DAV:   3    -0.229202655212E+02    0.17773E-01   -0.13877E-01    44   0.250E+00    0.207E-01
DAV:   4    -0.229202109266E+02    0.54595E-04   -0.20640E-02    40   0.984E-01    0.150E-01
DAV:   5    -0.229197504736E+02    0.46045E-03   -0.21261E-03    44   0.366E-01    0.249E-02
DAV:   6    -0.229198106126E+02   -0.60139E-04   -0.42260E-04    46   0.141E-01
   3 F= -.22919811E+02 E0= -.22919811E+02  d E =-.496947E-02  mag=     0.0000
