 vasp.5.2.12 11Nov11 complex                                                    
  
 executed on             LinuxIFC date 2012.11.01  16:49:09
 running on    1 nodes
 distr:  one band on    1 nodes,    1 groups


--------------------------------------------------------------------------------------------------------


 INCAR:
 POTCAR:   PAW_PBE H 15Jun2001                    
 POTCAR:   PAW_PBE C 08Apr2002                    
 POTCAR:   PAW_PBE H 15Jun2001                    
   VRHFIN =H: ultrasoft test                                                    
   LEXCH  = PE                                                                  
   EATOM  =    12.4884 eV,     .9179 Ry                                         
                                                                                
   TITEL  = PAW_PBE H 15Jun2001                                                 
   LULTRA =        F    use ultrasoft PP ?                                      
   IUNSCR =        0    unscreen: 0-lin 1-nonlin 2-no                           
   RPACOR =     .000    partial core radius                                     
   POMASS =    1.000; ZVAL   =    1.000    mass and valenz                      
   RCORE  =    1.100    outmost cutoff radius                                   
   RWIGS  =     .700; RWIGS  =     .370    wigner-seitz radius (au A)           
   ENMAX  =  250.000; ENMIN  =  200.000 eV                                      
   RCLOC  =     .701    cutoff for local pot                                    
   LCOR   =        T    correct aug charges                                     
   LPAW   =        T    paw PP                                                  
   EAUG   =  400.000                                                            
   RMAX   =    2.174    core radius for proj-oper                               
   RAUG   =    1.200    factor for augmentation sphere                          
   RDEP   =    1.112    radius for radial grids                                 
   QCUT   =   -5.749; QGAM   =   11.498    optimization parameters              
                                                                                
   Description                                                                  
     l     E      TYP  RCUT    TYP  RCUT                                        
     0   .000     23  1.100                                                     
     0   .500     23  1.100                                                     
     1  -.300     23  1.100                                                     
  local pseudopotential read in
  atomic valenz-charges read in
  non local Contribution for L=           0  read in
    real space projection operators read in
  non local Contribution for L=           0  read in
    real space projection operators read in
  non local Contribution for L=           1  read in
    real space projection operators read in
    PAW grid and wavefunctions read in
 
   number of l-projection  operators is LMAX  =           3
   number of lm-projection operators is LMMAX =           5
 
 POTCAR:   PAW_PBE C 08Apr2002                    
   VRHFIN =C: s2p2                                                              
   LEXCH  = PE                                                                  
   EATOM  =   147.1560 eV,   10.8157 Ry                                         
                                                                                
   TITEL  = PAW_PBE C 08Apr2002                                                 
   LULTRA =        F    use ultrasoft PP ?                                      
   IUNSCR =        0    unscreen: 0-lin 1-nonlin 2-no                           
   RPACOR =     .000    partial core radius                                     
   POMASS =   12.011; ZVAL   =    4.000    mass and valenz                      
   RCORE  =    1.500    outmost cutoff radius                                   
   RWIGS  =    1.630; RWIGS  =     .863    wigner-seitz radius (au A)           
   ENMAX  =  400.000; ENMIN  =  300.000 eV                                      
   ICORE  =        2    local potential                                         
   LCOR   =        T    correct aug charges                                     
   LPAW   =        T    paw PP                                                  
   EAUG   =  644.873                                                            
   DEXC   =     .000                                                            
   RMAX   =    2.266    core radius for proj-oper                               
   RAUG   =    1.300    factor for augmentation sphere                          
   RDEP   =    1.501    radius for radial grids                                 
   RDEPT  =    1.300    core radius for aug-charge                              
   QCUT   =   -5.516; QGAM   =   11.032    optimization parameters              
                                                                                
   Description                                                                  
     l     E      TYP  RCUT    TYP  RCUT                                        
     0   .000     23  1.200                                                     
     0   .000     23  1.200                                                     
     1   .000     23  1.500                                                     
     1  2.500     23  1.500                                                     
     2   .000      7  1.500                                                     
  local pseudopotential read in
  atomic valenz-charges read in
  non local Contribution for L=           0  read in
    real space projection operators read in
  non local Contribution for L=           0  read in
    real space projection operators read in
  non local Contribution for L=           1  read in
    real space projection operators read in
  non local Contribution for L=           1  read in
    real space projection operators read in
    PAW grid and wavefunctions read in
 
   number of l-projection  operators is LMAX  =           4
   number of lm-projection operators is LMMAX =           8
 
 PAW_PBE H 15Jun2001                    :
 energy of atom  1       EATOM=  -12.4884
 kinetic energy error for atom=    0.0203 (will be added to EATOM!!)
 PAW_PBE C 08Apr2002                    :
 energy of atom  2       EATOM= -147.1560
 kinetic energy error for atom=    0.0854 (will be added to EATOM!!)
 
 
 POSCAR:  H  C                                   
  positions in cartesian coordinates
  No initial velocities read in
 exchange correlation table for  LEXCH =        8
   RHO(1)=    0.500       N(1)  =     2000
   RHO(2)=  100.500       N(2)  =     4000
 


--------------------------------------------------------------------------------------------------------


 ion  position               nearest neighbor table
   1  0.500  0.500  0.333-   4 1.07
   2  0.500  0.500  0.667-   3 1.07
   3  0.500  0.500  0.561-   2 1.07   4 1.22
   4  0.500  0.500  0.439-   1 1.07   3 1.22
 
  LATTYP: Found a simple cubic cell.
 ALAT       =    10.0000000000
  
  Lattice vectors:
  
 A1 = (  10.0000000000,   0.0000000000,   0.0000000000)
 A2 = (   0.0000000000,  10.0000000000,   0.0000000000)
 A3 = (   0.0000000000,   0.0000000000,  10.0000000000)
 Subroutine PRICEL returns:
 Original cell was already a primitive cell.
 

Analysis of symmetry for initial positions (statically):

 Routine SETGRP: Setting up the symmetry group for a 
 simple cubic supercell.


 Subroutine GETGRP returns: Found 16 space group operations
 (whereof 16 operations were pure point group operations)
 out of a pool of 48 trial point group operations.


The static configuration has the point symmetry D_4h.

Analysis of symmetry for dynamics (positions and initial velocities):

 Subroutine DYNSYM returns: Found 16 space group operations
 (whereof 16 operations were pure point group operations)
 out of a pool of 16 trial space group operations
 (whereof 16 operations were pure point group operations)
 and found also     1 'primitive' translations


The dynamic configuration has the point symmetry D_4h.

Analysis of magnetic symmetry:

 Subroutine MAGSYM returns: Found 16 space group operations
 (whereof 16 operations were pure point group operations)
 out of a pool of 16 trial space group operations
 (whereof 16 operations were pure point group operations)
 and found also     1 'primitive' translations


The magnetic configuration has the point symmetry D_4h.
 
 
 KPOINTS: KPOINTS created by Atomic Simulation Env

Automatic generation of k-mesh.
 
 Subroutine IBZKPT returns following result:
 ===========================================
 
 Found      1 irreducible k-points:
 
 Following reciprocal coordinates:
            Coordinates               Weight
  0.000000  0.000000  0.000000      1.000000
 
 Following cartesian coordinates:
            Coordinates               Weight
  0.000000  0.000000  0.000000      1.000000
 


--------------------------------------------------------------------------------------------------------




 Dimension of arrays:
   k-points           NKPTS =      1   k-points in BZ     NKDIM =      1   number of bands    NBANDS=     10
   number of dos      NEDOS =    301   number of ions     NIONS =      4
   non local maximal  LDIM  =      4   non local SUM 2l+1 LMDIM =      8
   total plane-waves  NPLWV = 110592
   max r-space proj   IRMAX =      1   max aug-charges    IRDMAX=   1504
   dimension x,y,z NGX =    48 NGY =   48 NGZ =   48
   dimension x,y,z NGXF=    96 NGYF=   96 NGZF=   96
   support grid    NGXF=    96 NGYF=   96 NGZF=   96
   ions per type =               2   2
 NGX,Y,Z   is equivalent  to a cutoff of   7.98,  7.98,  7.98 a.u.
 NGXF,Y,Z  is equivalent  to a cutoff of  15.96, 15.96, 15.96 a.u.


 I would recommend the setting:
   dimension x,y,z NGX =    46 NGY =   46 NGZ =   46
 SYSTEM =  unknown system                          
 POSCAR =   H  C                                   

 Startparameter for this run:
   NWRITE =      2    write-flag & timer
   PREC   = normal    normal or accurate (medium, high low for compatibility)
   ISTART =      0    job   : 0-new  1-cont  2-samecut
   ICHARG =      2    charge: 1-file 2-atom 10-const
   ISPIN  =      2    spin polarized calculation?
   LNONCOLLINEAR =      F non collinear calculations
   LSORBIT =      F    spin-orbit coupling
   INIWAV =      1    electr: 0-lowe 1-rand  2-diag
   LASPH  =      F    aspherical Exc in radial PAW
   METAGGA=      F    non-selfconsistent MetaGGA calc.

 Electronic Relaxation 1
   ENCUT  =  350.0 eV  25.72 Ry    5.07 a.u.  15.25 15.25 15.25*2*pi/ulx,y,z
   ENINI  =  350.0     initial cutoff
   ENAUG  =  644.9 eV  augmentation charge cutoff
   NELM   =     60;   NELMIN=  2; NELMDL= -5     # of ELM steps 
   EDIFF  = 0.1E-03   stopping-criterion for ELM
   LREAL  =      F    real-space projection
   NLSPLINE    = F    spline interpolate recip. space projectors
   LCOMPAT=      F    compatible to vasp.4.4
   GGA_COMPAT  = T    GGA compatible to vasp.4.4-vasp.4.6
   LMAXPAW     = -100 max onsite density
   LMAXMIX     =    2 max onsite mixed and CHGCAR
   VOSKOWN=      0    Vosko Wilk Nusair interpolation
   ROPT   =    0.00000   0.00000
 Ionic relaxation
   EDIFFG = 0.1E-02   stopping-criterion for IOM
   NSW    =      8    number of steps for IOM
   NBLOCK =      1;   KBLOCK =      8    inner block; outer block 
   IBRION =      2    ionic relax: 0-MD 1-quasi-New 2-CG
   NFREE  =      1    steps in history (QN), initial steepest desc. (CG)
   ISIF   =      2    stress and relaxation
   IWAVPR =     11    prediction:  0-non 1-charg 2-wave 3-comb
   ISYM   =      2    0-nonsym 1-usesym 2-fastsym
   LCORR  =      T    Harris-Foulkes like correction to forces

   POTIM  = 0.5000    time-step for ionic-motion
   TEIN   =    0.0    initial temperature
   TEBEG  =    0.0;   TEEND  =   0.0 temperature during run
   SMASS  =  -3.00    Nose mass-parameter (am)
   estimated Nose-frequenzy (Omega)   =  0.10E-29 period in steps =****** mass=  -0.229E-26a.u.
   SCALEE = 1.0000    scale energy and forces
   NPACO  =    256;   APACO  = 16.0  distance and # of slots for P.C.
   PSTRESS=    0.0 pullay stress

  Mass of Ions in am
   POMASS =   1.00 12.01
  Ionic Valenz
   ZVAL   =   1.00  4.00
  Atomic Wigner-Seitz radii
   RWIGS  =  -1.00 -1.00
  virtual crystal weights 
   VCA    =   1.00  1.00
   NELECT =      10.0000    total number of electrons
   NUPDOWN=      -1.0000    fix difference up-down

 DOS related values:
   EMIN   =  10.00;   EMAX   =-10.00  energy-range for DOS
   EFERMI =   0.00
   ISMEAR =     0;   SIGMA  =   0.20  broadening in eV -4-tet -1-fermi 0-gaus

 Electronic relaxation 2 (details)
   IALGO  =     38    algorithm
   LDIAG  =      T    sub-space diagonalisation (order eigenvalues)
   LSUBROT=      T    optimize rotation matrix (better conditioning)
   TURBO    =      0    0=normal 1=particle mesh
   IRESTART =      0    0=no restart 2=restart with 2 vectors
   NREBOOT  =      0    no. of reboots
   NMIN     =      0    reboot dimension
   EREF     =   0.00    reference energy to select bands
   IMIX   =      4    mixing-type and parameters
     AMIX     =   0.40;   BMIX     =  1.00
     AMIX_MAG =   1.60;   BMIX_MAG =  1.00
     AMIN     =   0.10
     WC   =   100.;   INIMIX=   1;  MIXPRE=   1

 Intra band minimization:
   WEIMIN = 0.0010     energy-eigenvalue tresh-hold
   EBREAK =  0.25E-05  absolut break condition
   DEPER  =   0.30     relativ break condition  

   TIME   =   0.40     timestep for ELM

  volume/ion in A,a.u.               =     250.00      1687.08
  Fermi-wavevector in a.u.,A,eV,Ry     =   0.352702  0.666511  1.692549  0.124399
  Thomas-Fermi vector in A             =   1.266362
 
 Write flags
   LWAVE  =      T    write WAVECAR
   LCHARG =      T    write CHGCAR
   LVTOT  =      F    write LOCPOT, total local potential
   LVHAR  =      F    write LOCPOT, Hartree potential only
   LELF   =      F    write electronic localiz. function (ELF)
   LORBIT =      0    0 simple, 1 ext, 2 COOP (PROOUT)


 Dipole corrections
   LMONO  =      F    monopole corrections only (constant potential shift)
   LDIPOL =      F    correct potential (dipole corrections)
   IDIPOL =      0    1-x, 2-y, 3-z, 4-all directions 
   EPSILON=  1.0000000 bulk dielectric constant

 Exchange correlation treatment:
   GGA     =    --    GGA type
   LEXCH   =     8    internal setting for exchange type
   VOSKOWN=      0    Vosko Wilk Nusair interpolation
   LHFCALC =     F    Hartree Fock is set to
   LHFONE  =     F    Hartree Fock one center treatment
   AEXX    =    0.0000 exact exchange contribution

 Linear response parameters
   LEPSILON=     F    determine dielectric tensor
   LRPA    =     F    only Hartree local field effects (RPA)
   LNABLA  =     F    use nabla operator in PAW spheres
   LVEL    =     F    velocity operator in full k-point grid
   LINTERFAST=   F  fast interpolation
   KINTER  =     0    interpolate to denser k-point grid
   CSHIFT  =0.1000    complex shift for real part using Kramers Kronig
   OMEGAMAX=  -1.0    maximum frequency
   RTIME   =    0.100 relaxation time in fs

 Orbital magnetization related:
   ORBITALMAG=     F  switch on orbital magnetization
   LCHIMAG   =     F  perturbation theory with respect to B field
   DQ        =  0.001000  dq finite difference perturbation B field



--------------------------------------------------------------------------------------------------------


 conjugate gradient relaxation of ions
 charge density and potential will be updated during run
 spin polarized calculation
 Variant of blocked Davidson
 Davidson routine will perform the subspace rotation
 perform sub-space diagonalisation
    after iterative eigenvector-optimisation
 modified Broyden-mixing scheme, WC =      100.0
 initial mixing is a Kerker type mixing with AMIX =  0.4000 and BMIX =      1.0000
 Hartree-type preconditioning will be used
 using additional bands            5
 reciprocal scheme for non local part
 calculate Harris-corrections to forces 
   (improved forces if not selfconsistent)
 use gradient corrections 
 use of overlap-Matrix (Vanderbilt PP)
 Gauss-broadening in eV      SIGMA  =   0.20


--------------------------------------------------------------------------------------------------------


  energy-cutoff  :      350.00
  volume of cell :     1000.00
      direct lattice vectors                 reciprocal lattice vectors
    10.000000000  0.000000000  0.000000000     0.100000000  0.000000000  0.000000000
     0.000000000 10.000000000  0.000000000     0.000000000  0.100000000  0.000000000
     0.000000000  0.000000000 10.000000000     0.000000000  0.000000000  0.100000000

  length of vectors
    10.000000000 10.000000000 10.000000000     0.100000000  0.100000000  0.100000000


 
 k-points in units of 2pi/SCALE and weight: KPOINTS created by Atomic Simulation Env
   0.00000000  0.00000000  0.00000000       1.000
 
 k-points in reciprocal lattice and weights: KPOINTS created by Atomic Simulation Env
   0.00000000  0.00000000  0.00000000       1.000
 
 position of ions in fractional coordinates (direct lattice) 
   0.50000000  0.50000000  0.33260100
   0.50000000  0.50000000  0.66739900
   0.50000000  0.50000000  0.56080800
   0.50000000  0.50000000  0.43919200
 
 position of ions in cartesian coordinates  (Angst):
   5.00000000  5.00000000  3.32601000
   5.00000000  5.00000000  6.67399000
   5.00000000  5.00000000  5.60808000
   5.00000000  5.00000000  4.39192000
 


--------------------------------------------------------------------------------------------------------


 k-point  1 :  0.00000.00000.0000  plane waves:   14795

 maximum and minimum number of plane-waves per node :     14795    14795

 maximum number of plane-waves:     14795
 maximum index in each direction: 
   IXMAX=   15   IYMAX=   15   IZMAX=   15
   IXMIN=  -15   IYMIN=  -15   IZMIN=  -15

 WARNING: aliasing errors must be expected set NGX to  62 to avoid them
 WARNING: aliasing errors must be expected set NGY to  62 to avoid them
 WARNING: aliasing errors must be expected set NGZ to  62 to avoid them
 aliasing errors are usually negligible using standard VASP settings
 and one can safely disregard these warnings

 serial   3D FFT for wavefunctions
 parallel 3D FFT for charge:
    minimum data exchange during FFTs selected (reduces bandwidth)


 total amount of memory used by VASP on root node   149221. kBytes
========================================================================

   base      :      30000. kBytes
   nonl-proj :       2840. kBytes
   fftplans  :      30736. kBytes
   grid      :      80879. kBytes
   one-center:         24. kBytes
   wavefun   :       4742. kBytes
 
 Broyden mixing: mesh for mixing (old mesh)
   NGX = 31   NGY = 31   NGZ = 31
  (NGX  = 96   NGY  = 96   NGZ  = 96)
  gives a total of  29791 points

 initial charge density was supplied:
 charge density of overlapping atoms calculated
 number of electron      10.0000000 magnetization       4.0000000
 keeping initial charge density in first step


--------------------------------------------------------------------------------------------------------


 Maximum index for augmentation-charges         1281 (set IRDMAX)


--------------------------------------------------------------------------------------------------------


 First call to EWALD:  gamma=   0.177
 Maximum number of real-space cells 3x 3x 3
 Maximum number of reciprocal cells 3x 3x 3

    FEWALD:  cpu time    0.00: real time    0.00


----------------------------------------- Iteration    1(   1)  ---------------------------------------


    POTLOK:  cpu time    3.29: real time    3.30
    SETDIJ:  cpu time    0.05: real time    0.05
     EDDAV:  cpu time    2.33: real time    2.33
       DOS:  cpu time    0.00: real time    0.00
    --------------------------------------------
      LOOP:  cpu time    5.68: real time    5.68

 eigenvalue-minimisations  :    64
 total energy-change (2. order) : 0.3238831E+02  (-0.2267514E+03)
 number of electron      10.0000000 magnetization       4.0000000
 augmentation part       10.0000000 magnetization       4.0000000

 Free energy of the ion-electron system (eV)
  ---------------------------------------------------
  alpha Z        PSCENC =         0.45612485
  Ewald energy   TEWEN  =       150.77861747
  -1/2 Hartree   DENC   =      -363.01658269
  -exchange  EXHF       =         0.00000000
  -V(xc)+E(xc)   XCENC  =        31.19522852
  PAW double counting   =        76.49782901      -78.79783386
  entropy T*S    EENTRO =        -0.05041623
  eigenvalues    EBANDS =      -103.75215650
  atomic energy  EATOM  =       319.07750188
  ---------------------------------------------------
  free energy    TOTEN  =        32.38831246 eV

  energy without entropy =       32.43872869  energy(sigma->0) =       32.41352058


--------------------------------------------------------------------------------------------------------




----------------------------------------- Iteration    1(   2)  ---------------------------------------


     EDDAV:  cpu time    2.05: real time    2.05
       DOS:  cpu time    0.00: real time    0.00
    --------------------------------------------
      LOOP:  cpu time    2.05: real time    2.08

 eigenvalue-minimisations  :    60
 total energy-change (2. order) :-0.4876079E+02  (-0.4786470E+02)
 number of electron      10.0000000 magnetization       4.0000000
 augmentation part       10.0000000 magnetization       4.0000000

 Free energy of the ion-electron system (eV)
  ---------------------------------------------------
  alpha Z        PSCENC =         0.45612485
  Ewald energy   TEWEN  =       150.77861747
  -1/2 Hartree   DENC   =      -363.01658269
  -exchange  EXHF       =         0.00000000
  -V(xc)+E(xc)   XCENC  =        31.19522852
  PAW double counting   =        76.49782901      -78.79783386
  entropy T*S    EENTRO =         0.00000000
  eigenvalues    EBANDS =      -152.56336540
  atomic energy  EATOM  =       319.07750188
  ---------------------------------------------------
  free energy    TOTEN  =       -16.37248021 eV

  energy without entropy =      -16.37248021  energy(sigma->0) =      -16.37248021


--------------------------------------------------------------------------------------------------------




----------------------------------------- Iteration    1(   3)  ---------------------------------------


     EDDAV:  cpu time    3.48: real time    3.49
       DOS:  cpu time    0.00: real time    0.00
    --------------------------------------------
      LOOP:  cpu time    3.48: real time    3.51

 eigenvalue-minimisations  :    80
 total energy-change (2. order) :-0.5848161E+01  (-0.5846626E+01)
 number of electron      10.0000000 magnetization       4.0000000
 augmentation part       10.0000000 magnetization       4.0000000

 Free energy of the ion-electron system (eV)
  ---------------------------------------------------
  alpha Z        PSCENC =         0.45612485
  Ewald energy   TEWEN  =       150.77861747
  -1/2 Hartree   DENC   =      -363.01658269
  -exchange  EXHF       =         0.00000000
  -V(xc)+E(xc)   XCENC  =        31.19522852
  PAW double counting   =        76.49782901      -78.79783386
  entropy T*S    EENTRO =         0.00000000
  eigenvalues    EBANDS =      -158.41152632
  atomic energy  EATOM  =       319.07750188
  ---------------------------------------------------
  free energy    TOTEN  =       -22.22064113 eV

  energy without entropy =      -22.22064113  energy(sigma->0) =      -22.22064113


--------------------------------------------------------------------------------------------------------




----------------------------------------- Iteration    1(   4)  ---------------------------------------


     EDDAV:  cpu time    2.31: real time    2.31
       DOS:  cpu time    0.00: real time    0.00
    --------------------------------------------
      LOOP:  cpu time    2.31: real time    2.33

 eigenvalue-minimisations  :    62
 total energy-change (2. order) :-0.4390337E-01  (-0.4385689E-01)
 number of electron      10.0000000 magnetization       4.0000000
 augmentation part       10.0000000 magnetization       4.0000000

 Free energy of the ion-electron system (eV)
  ---------------------------------------------------
  alpha Z        PSCENC =         0.45612485
  Ewald energy   TEWEN  =       150.77861747
  -1/2 Hartree   DENC   =      -363.01658269
  -exchange  EXHF       =         0.00000000
  -V(xc)+E(xc)   XCENC  =        31.19522852
  PAW double counting   =        76.49782901      -78.79783386
  entropy T*S    EENTRO =         0.00000000
  eigenvalues    EBANDS =      -158.45542968
  atomic energy  EATOM  =       319.07750188
  ---------------------------------------------------
  free energy    TOTEN  =       -22.26454450 eV

  energy without entropy =      -22.26454450  energy(sigma->0) =      -22.26454450


--------------------------------------------------------------------------------------------------------




----------------------------------------- Iteration    1(   5)  ---------------------------------------


     EDDAV:  cpu time    1.94: real time    1.94
       DOS:  cpu time    0.00: real time    0.00
    CHARGE:  cpu time    0.39: real time    0.39
    MIXING:  cpu time    0.07: real time    0.07
    --------------------------------------------
      LOOP:  cpu time    2.40: real time    2.43

 eigenvalue-minimisations  :    54
 total energy-change (2. order) :-0.6443637E-04  (-0.6441851E-04)
 number of electron       9.9999975 magnetization       2.1885235
 augmentation part        0.2439598 magnetization       2.2012479

 Broyden mixing:
  rms(total) = 0.12942E+01    rms(broyden)= 0.12938E+01
  rms(prec ) = 0.15590E+01
  weight for this iteration     100.00

 Free energy of the ion-electron system (eV)
  ---------------------------------------------------
  alpha Z        PSCENC =         0.45612485
  Ewald energy   TEWEN  =       150.77861747
  -1/2 Hartree   DENC   =      -363.01658269
  -exchange  EXHF       =         0.00000000
  -V(xc)+E(xc)   XCENC  =        31.19522852
  PAW double counting   =        76.49782901      -78.79783386
  entropy T*S    EENTRO =         0.00000000
  eigenvalues    EBANDS =      -158.45549412
  atomic energy  EATOM  =       319.07750188
  ---------------------------------------------------
  free energy    TOTEN  =       -22.26460893 eV

  energy without entropy =      -22.26460893  energy(sigma->0) =      -22.26460893


--------------------------------------------------------------------------------------------------------




----------------------------------------- Iteration    1(   6)  ---------------------------------------


    POTLOK:  cpu time    3.47: real time    3.47
    SETDIJ:  cpu time    0.05: real time    0.05
     EDDAV:  cpu time    1.87: real time    1.87
       DOS:  cpu time    0.00: real time    0.00
    CHARGE:  cpu time    0.40: real time    0.40
    MIXING:  cpu time    0.07: real time    0.07
    --------------------------------------------
      LOOP:  cpu time    5.88: real time    5.89

 eigenvalue-minimisations  :    50
 total energy-change (2. order) : 0.1108389E+02  (-0.2338256E+01)
 number of electron       9.9999977 magnetization       1.0248007
 augmentation part        0.2421599 magnetization       1.0078496

 Broyden mixing:
  rms(total) = 0.51597E+00    rms(broyden)= 0.51565E+00
  rms(prec ) = 0.68215E+00
  weight for this iteration     100.00

 eigenvalues of (default mixing * dielectric matrix)
  average eigenvalue GAMMA=   0.9605
  0.9605

 Free energy of the ion-electron system (eV)
  ---------------------------------------------------
  alpha Z        PSCENC =         0.45612485
  Ewald energy   TEWEN  =       150.77861747
  -1/2 Hartree   DENC   =      -385.06083214
  -exchange  EXHF       =         0.00000000
  -V(xc)+E(xc)   XCENC  =        41.59400166
  PAW double counting   =       115.63889004     -118.21254904
  entropy T*S    EENTRO =         0.00000000
  eigenvalues    EBANDS =      -135.45247631
  atomic energy  EATOM  =       319.07750188
  ---------------------------------------------------
  free energy    TOTEN  =       -11.18072159 eV

  energy without entropy =      -11.18072159  energy(sigma->0) =      -11.18072159


--------------------------------------------------------------------------------------------------------




----------------------------------------- Iteration    1(   7)  ---------------------------------------


    POTLOK:  cpu time    3.79: real time    3.80
    SETDIJ:  cpu time    0.07: real time    0.07
     EDDAV:  cpu time    2.01: real time    2.03
       DOS:  cpu time    0.00: real time    0.00
    CHARGE:  cpu time    0.47: real time    0.47
    MIXING:  cpu time    0.09: real time    0.09
    --------------------------------------------
      LOOP:  cpu time    6.43: real time    6.47

 eigenvalue-minimisations  :    42
 total energy-change (2. order) :-0.8750285E+01  (-0.1074615E+01)
 number of electron       9.9999981 magnetization       0.4851517
 augmentation part        0.2196479 magnetization       0.4768744

 Broyden mixing:
  rms(total) = 0.21725E+00    rms(broyden)= 0.21709E+00
  rms(prec ) = 0.26576E+00
  weight for this iteration     100.00

 eigenvalues of (default mixing * dielectric matrix)
  average eigenvalue GAMMA=   1.0771
  1.0771  1.0771

 Free energy of the ion-electron system (eV)
  ---------------------------------------------------
  alpha Z        PSCENC =         0.45612485
  Ewald energy   TEWEN  =       150.77861747
  -1/2 Hartree   DENC   =      -399.78528468
  -exchange  EXHF       =         0.00000000
  -V(xc)+E(xc)   XCENC  =        35.04290941
  PAW double counting   =       140.27663592     -142.95375759
  entropy T*S    EENTRO =         0.00000000
  eigenvalues    EBANDS =      -122.82375393
  atomic energy  EATOM  =       319.07750188
  ---------------------------------------------------
  free energy    TOTEN  =       -19.93100667 eV

  energy without entropy =      -19.93100667  energy(sigma->0) =      -19.93100667


--------------------------------------------------------------------------------------------------------




----------------------------------------- Iteration    1(   8)  ---------------------------------------


    POTLOK:  cpu time    3.96: real time    4.06
    SETDIJ:  cpu time    0.05: real time    0.05
     EDDAV:  cpu time    1.70: real time    1.70
       DOS:  cpu time    0.00: real time    0.00
    CHARGE:  cpu time    0.43: real time    0.43
    MIXING:  cpu time    0.09: real time    0.09
    --------------------------------------------
      LOOP:  cpu time    6.23: real time    6.34

 eigenvalue-minimisations  :    44
 total energy-change (2. order) :-0.1921290E+01  (-0.5317919E-01)
 number of electron       9.9999981 magnetization       0.1338766
 augmentation part        0.2150017 magnetization       0.1299587

 Broyden mixing:
  rms(total) = 0.12345E+00    rms(broyden)= 0.12341E+00
  rms(prec ) = 0.15591E+00
  weight for this iteration     100.00

 eigenvalues of (default mixing * dielectric matrix)
  average eigenvalue GAMMA=   1.1562
  1.6093  1.0859  0.7736

 Free energy of the ion-electron system (eV)
  ---------------------------------------------------
  alpha Z        PSCENC =         0.45612485
  Ewald energy   TEWEN  =       150.77861747
  -1/2 Hartree   DENC   =      -402.64195523
  -exchange  EXHF       =         0.00000000
  -V(xc)+E(xc)   XCENC  =        33.44218656
  PAW double counting   =       145.59345398     -148.24333127
  entropy T*S    EENTRO =         0.00000000
  eigenvalues    EBANDS =      -120.31489473
  atomic energy  EATOM  =       319.07750188
  ---------------------------------------------------
  free energy    TOTEN  =       -21.85229649 eV

  energy without entropy =      -21.85229649  energy(sigma->0) =      -21.85229649


--------------------------------------------------------------------------------------------------------




----------------------------------------- Iteration    1(   9)  ---------------------------------------


    POTLOK:  cpu time    3.75: real time    3.75
    SETDIJ:  cpu time    0.06: real time    0.06
     EDDAV:  cpu time    1.74: real time    1.74
       DOS:  cpu time    0.00: real time    0.00
    CHARGE:  cpu time    0.45: real time    0.45
    MIXING:  cpu time    0.10: real time    0.10
    --------------------------------------------
      LOOP:  cpu time    6.10: real time    6.15

 eigenvalue-minimisations  :    44
 total energy-change (2. order) :-0.9035966E+00  (-0.3365911E-01)
 number of electron       9.9999981 magnetization      -0.0183860
 augmentation part        0.2124035 magnetization      -0.0208976

 Broyden mixing:
  rms(total) = 0.45023E-01    rms(broyden)= 0.45008E-01
  rms(prec ) = 0.65732E-01
  weight for this iteration     100.00

 eigenvalues of (default mixing * dielectric matrix)
  average eigenvalue GAMMA=   1.2886
  2.1522  1.3245  0.9746  0.7032

 Free energy of the ion-electron system (eV)
  ---------------------------------------------------
  alpha Z        PSCENC =         0.45612485
  Ewald energy   TEWEN  =       150.77861747
  -1/2 Hartree   DENC   =      -404.27994656
  -exchange  EXHF       =         0.00000000
  -V(xc)+E(xc)   XCENC  =        32.80577073
  PAW double counting   =       148.26388987     -150.88204741
  entropy T*S    EENTRO =         0.00000000
  eigenvalues    EBANDS =      -118.97580394
  atomic energy  EATOM  =       319.07750188
  ---------------------------------------------------
  free energy    TOTEN  =       -22.75589311 eV

  energy without entropy =      -22.75589311  energy(sigma->0) =      -22.75589311


--------------------------------------------------------------------------------------------------------




----------------------------------------- Iteration    1(  10)  ---------------------------------------


    POTLOK:  cpu time    3.92: real time    3.92
    SETDIJ:  cpu time    0.05: real time    0.05
     EDDAV:  cpu time    1.71: real time    1.71
       DOS:  cpu time    0.00: real time    0.00
    CHARGE:  cpu time    0.45: real time    0.46
    MIXING:  cpu time    0.10: real time    0.10
    --------------------------------------------
      LOOP:  cpu time    6.24: real time    6.28

 eigenvalue-minimisations  :    42
 total energy-change (2. order) :-0.1324527E+00  (-0.8538483E-02)
 number of electron       9.9999982 magnetization      -0.0095637
 augmentation part        0.2114797 magnetization      -0.0096495

 Broyden mixing:
  rms(total) = 0.16315E-01    rms(broyden)= 0.16279E-01
  rms(prec ) = 0.35570E-01
  weight for this iteration     100.00

 eigenvalues of (default mixing * dielectric matrix)
  average eigenvalue GAMMA=   1.1951
  2.2117  1.4073  0.8839  0.8063  0.6662

 Free energy of the ion-electron system (eV)
  ---------------------------------------------------
  alpha Z        PSCENC =         0.45612485
  Ewald energy   TEWEN  =       150.77861747
  -1/2 Hartree   DENC   =      -405.15219737
  -exchange  EXHF       =         0.00000000
  -V(xc)+E(xc)   XCENC  =        32.74614247
  PAW double counting   =       149.35768349     -151.96117671
  entropy T*S    EENTRO =         0.00000000
  eigenvalues    EBANDS =      -118.19104192
  atomic energy  EATOM  =       319.07750188
  ---------------------------------------------------
  free energy    TOTEN  =       -22.88834585 eV

  energy without entropy =      -22.88834585  energy(sigma->0) =      -22.88834585


--------------------------------------------------------------------------------------------------------




----------------------------------------- Iteration    1(  11)  ---------------------------------------


    POTLOK:  cpu time    3.85: real time    3.85
    SETDIJ:  cpu time    0.06: real time    0.06
     EDDAV:  cpu time    1.86: real time    1.86
       DOS:  cpu time    0.00: real time    0.00
    CHARGE:  cpu time    0.43: real time    0.43
    MIXING:  cpu time    0.10: real time    0.10
    --------------------------------------------
      LOOP:  cpu time    6.30: real time    6.33

 eigenvalue-minimisations  :    44
 total energy-change (2. order) :-0.4976096E-02  (-0.3108044E-03)
 number of electron       9.9999982 magnetization       0.0006402
 augmentation part        0.2113366 magnetization       0.0006879

 Broyden mixing:
  rms(total) = 0.10857E-01    rms(broyden)= 0.10854E-01
  rms(prec ) = 0.28000E-01
  weight for this iteration     100.00

 eigenvalues of (default mixing * dielectric matrix)
  average eigenvalue GAMMA=   1.2478
  2.1549  1.7506  1.2007  0.9767  0.7463  0.6578

 Free energy of the ion-electron system (eV)
  ---------------------------------------------------
  alpha Z        PSCENC =         0.45612485
  Ewald energy   TEWEN  =       150.77861747
  -1/2 Hartree   DENC   =      -405.41501974
  -exchange  EXHF       =         0.00000000
  -V(xc)+E(xc)   XCENC  =        32.74189498
  PAW double counting   =       149.27382821     -151.87746946
  entropy T*S    EENTRO =         0.00000000
  eigenvalues    EBANDS =      -117.92880013
  atomic energy  EATOM  =       319.07750188
  ---------------------------------------------------
  free energy    TOTEN  =       -22.89332194 eV

  energy without entropy =      -22.89332194  energy(sigma->0) =      -22.89332194


--------------------------------------------------------------------------------------------------------




----------------------------------------- Iteration    1(  12)  ---------------------------------------


    POTLOK:  cpu time    3.80: real time    3.80
    SETDIJ:  cpu time    0.06: real time    0.06
     EDDAV:  cpu time    1.80: real time    1.80
       DOS:  cpu time    0.00: real time    0.00
    CHARGE:  cpu time    0.47: real time    0.48
    MIXING:  cpu time    0.11: real time    0.11
    --------------------------------------------
      LOOP:  cpu time    6.24: real time    6.27

 eigenvalue-minimisations  :    40
 total energy-change (2. order) :-0.5994931E-02  (-0.3684376E-03)
 number of electron       9.9999982 magnetization      -0.0037847
 augmentation part        0.2112927 magnetization      -0.0036076

 Broyden mixing:
  rms(total) = 0.71705E-02    rms(broyden)= 0.71692E-02
  rms(prec ) = 0.14693E-01
  weight for this iteration     100.00

 eigenvalues of (default mixing * dielectric matrix)
  average eigenvalue GAMMA=   1.3552
  2.8205  2.1825  1.3510  0.8888  0.8888  0.7127  0.6425

 Free energy of the ion-electron system (eV)
  ---------------------------------------------------
  alpha Z        PSCENC =         0.45612485
  Ewald energy   TEWEN  =       150.77861747
  -1/2 Hartree   DENC   =      -406.16969794
  -exchange  EXHF       =         0.00000000
  -V(xc)+E(xc)   XCENC  =        32.74730089
  PAW double counting   =       149.12090606     -151.72405389
  entropy T*S    EENTRO =         0.00000000
  eigenvalues    EBANDS =      -117.18601619
  atomic energy  EATOM  =       319.07750188
  ---------------------------------------------------
  free energy    TOTEN  =       -22.89931688 eV

  energy without entropy =      -22.89931688  energy(sigma->0) =      -22.89931688


--------------------------------------------------------------------------------------------------------




----------------------------------------- Iteration    1(  13)  ---------------------------------------


    POTLOK:  cpu time    3.75: real time    3.75
    SETDIJ:  cpu time    0.06: real time    0.06
     EDDAV:  cpu time    1.68: real time    1.68
       DOS:  cpu time    0.00: real time    0.00
    CHARGE:  cpu time    0.44: real time    0.44
    MIXING:  cpu time    0.12: real time    0.12
    --------------------------------------------
      LOOP:  cpu time    6.04: real time    6.06

 eigenvalue-minimisations  :    40
 total energy-change (2. order) :-0.4165608E-02  (-0.8099637E-04)
 number of electron       9.9999982 magnetization      -0.0001487
 augmentation part        0.2111834 magnetization      -0.0001089

 Broyden mixing:
  rms(total) = 0.46691E-02    rms(broyden)= 0.46688E-02
  rms(prec ) = 0.10719E-01
  weight for this iteration     100.00

 eigenvalues of (default mixing * dielectric matrix)
  average eigenvalue GAMMA=   1.3621
  3.1691  2.1379  1.2866  1.0218  1.0218  0.9107  0.7223  0.6263

 Free energy of the ion-electron system (eV)
  ---------------------------------------------------
  alpha Z        PSCENC =         0.45612485
  Ewald energy   TEWEN  =       150.77861747
  -1/2 Hartree   DENC   =      -406.37951527
  -exchange  EXHF       =         0.00000000
  -V(xc)+E(xc)   XCENC  =        32.75048776
  PAW double counting   =       149.05450665     -151.65681638
  entropy T*S    EENTRO =         0.00000000
  eigenvalues    EBANDS =      -116.98438944
  atomic energy  EATOM  =       319.07750188
  ---------------------------------------------------
  free energy    TOTEN  =       -22.90348248 eV

  energy without entropy =      -22.90348248  energy(sigma->0) =      -22.90348248


--------------------------------------------------------------------------------------------------------




----------------------------------------- Iteration    1(  14)  ---------------------------------------


    POTLOK:  cpu time    3.70: real time    3.71
    SETDIJ:  cpu time    0.06: real time    0.06
     EDDAV:  cpu time    1.82: real time    1.82
       DOS:  cpu time    0.00: real time    0.00
    CHARGE:  cpu time    0.46: real time    0.46
    MIXING:  cpu time    0.12: real time    0.12
    --------------------------------------------
      LOOP:  cpu time    6.16: real time    6.18

 eigenvalue-minimisations  :    40
 total energy-change (2. order) :-0.5797664E-02  (-0.1383559E-03)
 number of electron       9.9999982 magnetization       0.0031348
 augmentation part        0.2111586 magnetization       0.0031291

 Broyden mixing:
  rms(total) = 0.34521E-02    rms(broyden)= 0.34518E-02
  rms(prec ) = 0.62962E-02
  weight for this iteration     100.00

 eigenvalues of (default mixing * dielectric matrix)
  average eigenvalue GAMMA=   1.4545
  3.8525  2.1658  1.5550  1.5550  0.9279  0.9279  0.7644  0.7245  0.6176

 Free energy of the ion-electron system (eV)
  ---------------------------------------------------
  alpha Z        PSCENC =         0.45612485
  Ewald energy   TEWEN  =       150.77861747
  -1/2 Hartree   DENC   =      -406.59137333
  -exchange  EXHF       =         0.00000000
  -V(xc)+E(xc)   XCENC  =        32.75283314
  PAW double counting   =       148.80351253     -151.40532435
  entropy T*S    EENTRO =         0.00000000
  eigenvalues    EBANDS =      -116.78117233
  atomic energy  EATOM  =       319.07750188
  ---------------------------------------------------
  free energy    TOTEN  =       -22.90928015 eV

  energy without entropy =      -22.90928015  energy(sigma->0) =      -22.90928015


--------------------------------------------------------------------------------------------------------




----------------------------------------- Iteration    1(  15)  ---------------------------------------


    POTLOK:  cpu time    3.64: real time    3.64
    SETDIJ:  cpu time    0.06: real time    0.06
     EDDAV:  cpu time    1.76: real time    1.76
       DOS:  cpu time    0.00: real time    0.00
    CHARGE:  cpu time    0.44: real time    0.44
    MIXING:  cpu time    0.14: real time    0.14
    --------------------------------------------
      LOOP:  cpu time    6.04: real time    6.06

 eigenvalue-minimisations  :    44
 total energy-change (2. order) :-0.1694594E-02  (-0.4163820E-04)
 number of electron       9.9999982 magnetization       0.0023087
 augmentation part        0.2110908 magnetization       0.0022753

 Broyden mixing:
  rms(total) = 0.17004E-02    rms(broyden)= 0.16996E-02
  rms(prec ) = 0.38609E-02
  weight for this iteration     100.00

 eigenvalues of (default mixing * dielectric matrix)
  average eigenvalue GAMMA=   1.5792
  5.0145  2.4654  1.9789  1.4048  0.9780  0.9780  0.8865  0.7781  0.6876  0.6201

 Free energy of the ion-electron system (eV)
  ---------------------------------------------------
  alpha Z        PSCENC =         0.45612485
  Ewald energy   TEWEN  =       150.77861747
  -1/2 Hartree   DENC   =      -406.68445985
  -exchange  EXHF       =         0.00000000
  -V(xc)+E(xc)   XCENC  =        32.75387218
  PAW double counting   =       148.75317279     -151.35554694
  entropy T*S    EENTRO =         0.00000000
  eigenvalues    EBANDS =      -116.69025712
  atomic energy  EATOM  =       319.07750188
  ---------------------------------------------------
  free energy    TOTEN  =       -22.91097474 eV

  energy without entropy =      -22.91097474  energy(sigma->0) =      -22.91097474


--------------------------------------------------------------------------------------------------------




----------------------------------------- Iteration    1(  16)  ---------------------------------------


    POTLOK:  cpu time    3.66: real time    3.66
    SETDIJ:  cpu time    0.05: real time    0.05
     EDDAV:  cpu time    1.69: real time    1.69
       DOS:  cpu time    0.00: real time    0.00
    CHARGE:  cpu time    0.44: real time    0.44
    MIXING:  cpu time    0.14: real time    0.14
    --------------------------------------------
      LOOP:  cpu time    6.00: real time    6.01

 eigenvalue-minimisations  :    40
 total energy-change (2. order) :-0.1778637E-02  (-0.2320659E-04)
 number of electron       9.9999982 magnetization      -0.0003572
 augmentation part        0.2110429 magnetization      -0.0003758

 Broyden mixing:
  rms(total) = 0.11401E-02    rms(broyden)= 0.11398E-02
  rms(prec ) = 0.26557E-02
  weight for this iteration     100.00

 eigenvalues of (default mixing * dielectric matrix)
  average eigenvalue GAMMA=   1.6181
  5.7159  2.6013  2.0423  1.2936  1.2936  0.9897  0.9897  0.8399  0.7459  0.6181
  0.6693

 Free energy of the ion-electron system (eV)
  ---------------------------------------------------
  alpha Z        PSCENC =         0.45612485
  Ewald energy   TEWEN  =       150.77861747
  -1/2 Hartree   DENC   =      -406.70619302
  -exchange  EXHF       =         0.00000000
  -V(xc)+E(xc)   XCENC  =        32.75303403
  PAW double counting   =       148.78048368     -151.38306725
  entropy T*S    EENTRO =         0.00000000
  eigenvalues    EBANDS =      -116.66925501
  atomic energy  EATOM  =       319.07750188
  ---------------------------------------------------
  free energy    TOTEN  =       -22.91275338 eV

  energy without entropy =      -22.91275338  energy(sigma->0) =      -22.91275338


--------------------------------------------------------------------------------------------------------




----------------------------------------- Iteration    1(  17)  ---------------------------------------


    POTLOK:  cpu time    3.68: real time    3.68
    SETDIJ:  cpu time    0.06: real time    0.06
     EDDAV:  cpu time    1.77: real time    1.77
       DOS:  cpu time    0.00: real time    0.00
    CHARGE:  cpu time    0.44: real time    0.45
    MIXING:  cpu time    0.16: real time    0.16
    --------------------------------------------
      LOOP:  cpu time    6.11: real time    6.12

 eigenvalue-minimisations  :    44
 total energy-change (2. order) :-0.1433423E-02  (-0.2335944E-04)
 number of electron       9.9999982 magnetization      -0.0008107
 augmentation part        0.2110274 magnetization      -0.0008145

 Broyden mixing:
  rms(total) = 0.75341E-03    rms(broyden)= 0.75335E-03
  rms(prec ) = 0.13936E-02
  weight for this iteration     100.00

 eigenvalues of (default mixing * dielectric matrix)
  average eigenvalue GAMMA=   1.7174
  6.4059  2.9354  2.2434  1.9045  1.4037  0.9944  0.9944  0.9183  0.8306  0.7141
  0.6141  0.6501

 Free energy of the ion-electron system (eV)
  ---------------------------------------------------
  alpha Z        PSCENC =         0.45612485
  Ewald energy   TEWEN  =       150.77861747
  -1/2 Hartree   DENC   =      -406.67900922
  -exchange  EXHF       =         0.00000000
  -V(xc)+E(xc)   XCENC  =        32.75011058
  PAW double counting   =       148.81604062     -151.41831033
  entropy T*S    EENTRO =         0.00000000
  eigenvalues    EBANDS =      -116.69526266
  atomic energy  EATOM  =       319.07750188
  ---------------------------------------------------
  free energy    TOTEN  =       -22.91418680 eV

  energy without entropy =      -22.91418680  energy(sigma->0) =      -22.91418680


--------------------------------------------------------------------------------------------------------




----------------------------------------- Iteration    1(  18)  ---------------------------------------


    POTLOK:  cpu time    3.65: real time    3.65
    SETDIJ:  cpu time    0.05: real time    0.05
     EDDAV:  cpu time    1.69: real time    1.69
       DOS:  cpu time    0.00: real time    0.00
    CHARGE:  cpu time    0.44: real time    0.44
    MIXING:  cpu time    0.17: real time    0.17
    --------------------------------------------
      LOOP:  cpu time    6.00: real time    6.01

 eigenvalue-minimisations  :    40
 total energy-change (2. order) :-0.3140449E-03  (-0.4414336E-05)
 number of electron       9.9999982 magnetization      -0.0003061
 augmentation part        0.2110275 magnetization      -0.0003022

 Broyden mixing:
  rms(total) = 0.39844E-03    rms(broyden)= 0.39834E-03
  rms(prec ) = 0.73316E-03
  weight for this iteration     100.00

 eigenvalues of (default mixing * dielectric matrix)
  average eigenvalue GAMMA=   1.7955
  7.0541  3.6971  2.4426  2.0492  1.3630  1.0537  1.0537  0.9806  0.9098  0.7848
  0.7020  0.6142  0.6367

 Free energy of the ion-electron system (eV)
  ---------------------------------------------------
  alpha Z        PSCENC =         0.45612485
  Ewald energy   TEWEN  =       150.77861747
  -1/2 Hartree   DENC   =      -406.65510515
  -exchange  EXHF       =         0.00000000
  -V(xc)+E(xc)   XCENC  =        32.74832590
  PAW double counting   =       148.81928601     -151.42135577
  entropy T*S    EENTRO =         0.00000000
  eigenvalues    EBANDS =      -116.71789604
  atomic energy  EATOM  =       319.07750188
  ---------------------------------------------------
  free energy    TOTEN  =       -22.91450085 eV

  energy without entropy =      -22.91450085  energy(sigma->0) =      -22.91450085


--------------------------------------------------------------------------------------------------------




----------------------------------------- Iteration    1(  19)  ---------------------------------------


    POTLOK:  cpu time    3.63: real time    3.63
    SETDIJ:  cpu time    0.06: real time    0.06
     EDDAV:  cpu time    1.90: real time    1.90
       DOS:  cpu time    0.00: real time    0.00
    CHARGE:  cpu time    0.46: real time    0.46
    MIXING:  cpu time    0.18: real time    0.18
    --------------------------------------------
      LOOP:  cpu time    6.23: real time    6.25

 eigenvalue-minimisations  :    48
 total energy-change (2. order) :-0.2926405E-03  (-0.1997864E-05)
 number of electron       9.9999982 magnetization      -0.0000585
 augmentation part        0.2110328 magnetization      -0.0000523

 Broyden mixing:
  rms(total) = 0.21174E-03    rms(broyden)= 0.21168E-03
  rms(prec ) = 0.41537E-03
  weight for this iteration     100.00

 eigenvalues of (default mixing * dielectric matrix)
  average eigenvalue GAMMA=   1.8545
  7.5895  4.3105  2.5502  2.0883  1.5341  1.3968  0.9992  0.9992  0.9794  0.8298
  0.7503  0.6905  0.6169  0.6279

 Free energy of the ion-electron system (eV)
  ---------------------------------------------------
  alpha Z        PSCENC =         0.45612485
  Ewald energy   TEWEN  =       150.77861747
  -1/2 Hartree   DENC   =      -406.64406584
  -exchange  EXHF       =         0.00000000
  -V(xc)+E(xc)   XCENC  =        32.74737769
  PAW double counting   =       148.81532442     -151.41738961
  entropy T*S    EENTRO =         0.00000000
  eigenvalues    EBANDS =      -116.72828435
  atomic energy  EATOM  =       319.07750188
  ---------------------------------------------------
  free energy    TOTEN  =       -22.91479349 eV

  energy without entropy =      -22.91479349  energy(sigma->0) =      -22.91479349


--------------------------------------------------------------------------------------------------------




----------------------------------------- Iteration    1(  20)  ---------------------------------------


    POTLOK:  cpu time    3.64: real time    3.64
    SETDIJ:  cpu time    0.06: real time    0.06
     EDDAV:  cpu time    1.77: real time    1.78
       DOS:  cpu time    0.00: real time    0.00
    --------------------------------------------
      LOOP:  cpu time    5.47: real time    5.48

 eigenvalue-minimisations  :    44
 total energy-change (2. order) :-0.4765257E-04  (-0.4857110E-06)
 number of electron       9.9999982 magnetization      -0.0000585
 augmentation part        0.2110328 magnetization      -0.0000523

 Free energy of the ion-electron system (eV)
  ---------------------------------------------------
  alpha Z        PSCENC =         0.45612485
  Ewald energy   TEWEN  =       150.77861747
  -1/2 Hartree   DENC   =      -406.63987099
  -exchange  EXHF       =         0.00000000
  -V(xc)+E(xc)   XCENC  =        32.74712018
  PAW double counting   =       148.81703997     -151.41917510
  entropy T*S    EENTRO =         0.00000000
  eigenvalues    EBANDS =      -116.73219941
  atomic energy  EATOM  =       319.07750188
  ---------------------------------------------------
  free energy    TOTEN  =       -22.91484114 eV

  energy without entropy =      -22.91484114  energy(sigma->0) =      -22.91484114


--------------------------------------------------------------------------------------------------------




 average (electrostatic) potential at core
  the test charge radii are     0.5201  0.6991
  (the norm of the test charge is              1.0000)
       1 -43.5022       2 -43.5022       3 -58.9601       4 -58.9601
 
 
 
 E-fermi :  -6.0271     XC(G=0):  -0.7836     alpha+bet : -0.2560


 spin component 1

 k-point   1 :       0.0000    0.0000    0.0000
  band No.  band energies     occupation 
      1     -18.4298      1.00000
      2     -13.9341      1.00000
      3     -12.0111      1.00000
      4      -6.9955      1.00000
      5      -6.9955      1.00000
      6      -0.3289      0.00000
      7      -0.3167      0.00000
      8      -0.3167      0.00000
      9       0.6392      0.00000
     10       0.8950      0.00000

 spin component 2

 k-point   1 :       0.0000    0.0000    0.0000
  band No.  band energies     occupation 
      1     -18.4298      1.00000
      2     -13.9342      1.00000
      3     -12.0111      1.00000
      4      -6.9956      1.00000
      5      -6.9956      1.00000
      6      -0.3232      0.00000
      7      -0.3162      0.00000
      8      -0.3162      0.00000
      9       0.6476      0.00000
     10       0.9257      0.00000


--------------------------------------------------------------------------------------------------------


 soft charge-density along one line, spin component           1
         0         1         2         3         4         5         6         7         8         9
 total charge-density along one line
 
 soft charge-density along one line, spin component           2
         0         1         2         3         4         5         6         7         8         9
 total charge-density along one line
 
 pseudopotential strength for first ion, spin component:           1
 -2.369  -0.015   0.000  -0.002   0.000
 -0.015   0.049   0.000  -0.002   0.000
  0.000   0.000  -0.332   0.000   0.000
 -0.002  -0.002   0.000  -0.326   0.000
  0.000   0.000   0.000   0.000  -0.332
 pseudopotential strength for first ion, spin component:           2
 -2.369  -0.015   0.000  -0.002   0.000
 -0.015   0.049   0.000  -0.002   0.000
  0.000   0.000  -0.332   0.000   0.000
 -0.002  -0.002   0.000  -0.326   0.000
  0.000   0.000   0.000   0.000  -0.332
 total augmentation occupancy for first ion, spin component:           1
  1.679  -0.640   0.000   0.326   0.000
 -0.640   0.258   0.000  -0.127   0.000
  0.000   0.000   0.010   0.000   0.000
  0.326  -0.127   0.000   0.064   0.000
  0.000   0.000   0.000   0.000   0.010
 total augmentation occupancy for first ion, spin component:           2
  0.000   0.000   0.000   0.000   0.000
  0.000   0.000   0.000   0.000   0.000
  0.000   0.000   0.000   0.000   0.000
  0.000   0.000   0.000   0.000   0.000
  0.000   0.000   0.000   0.000   0.000


------------------------ aborting loop because EDIFF is reached ----------------------------------------


    CHARGE:  cpu time    0.46: real time    0.46
    FORLOC:  cpu time    0.14: real time    0.14
    FORNL :  cpu time    0.28: real time    0.28
    STRESS:  cpu time    0.77: real time    0.77
    FORHAR:  cpu time    0.48: real time    0.48
    MIXING:  cpu time    0.19: real time    0.19

  FORCE on cell =-STRESS in cart. coord.  units (eV):
  Direction    XX          YY          ZZ          XY          YZ          ZX
  --------------------------------------------------------------------------------------
  Alpha Z     0.45612     0.45612     0.45612
  Ewald     -69.23822   -69.23822   289.25500     0.00000     0.00000     0.00000
  Hartree    94.02861    94.02861   218.58477     0.00000     0.00000     0.00000
  E(xc)     -35.00434   -35.00434   -33.46764     0.00000     0.00000     0.00000
  Local    -134.48072  -134.48072  -573.58110     0.00000     0.00000     0.00000
  n-local   -11.23452   -11.23452   -11.07187     0.00000     0.00000     0.00000
  augment    -0.34053    -0.34053    -0.66179     0.00000     0.00000     0.00000
  Kinetic   154.65211   154.65211   108.80543     0.00000     0.00000     0.00000
  Fock        0.00000     0.00000     0.00000     0.00000     0.00000     0.00000
  -------------------------------------------------------------------------------------
  Total      -1.16148    -1.16148    -1.68107     0.00000     0.00000     0.00000
  in kB      -1.86090    -1.86090    -2.69338     0.00000     0.00000     0.00000
  external pressure =       -2.14 kB  Pullay stress =        0.00 kB


 VOLUME and BASIS-vectors are now :
 -----------------------------------------------------------------------------
  energy-cutoff  :      350.00
  volume of cell :     1000.00
      direct lattice vectors                 reciprocal lattice vectors
    10.000000000  0.000000000  0.000000000     0.100000000  0.000000000  0.000000000
     0.000000000 10.000000000  0.000000000     0.000000000  0.100000000  0.000000000
     0.000000000  0.000000000 10.000000000     0.000000000  0.000000000  0.100000000

  length of vectors
    10.000000000 10.000000000 10.000000000     0.100000000  0.100000000  0.100000000


 FORCES acting on ions
    electron-ion (+dipol)            ewald-force                    non-local-force                 convergence-correction
 -----------------------------------------------------------------------------------------------
   0.264E-13 -.279E-13 0.554E+02   -.626E-17 -.490E-17 -.619E+02   0.000E+00 -.145E-25 0.621E+01   -.763E-14 -.810E-14 -.264E-03
   0.275E-13 -.600E-13 -.554E+02   0.381E-17 0.604E-17 0.619E+02   0.000E+00 0.129E-25 -.621E+01   -.634E-14 -.540E-14 0.264E-03
   0.110E-12 -.469E-12 -.113E+03   -.306E-16 -.105E-16 0.115E+03   0.310E-24 0.000E+00 -.253E+01   -.440E-13 -.412E-13 0.178E-02
   0.113E-12 0.158E-12 0.113E+03   0.351E-16 -.207E-16 -.115E+03   -.114E-23 0.000E+00 0.253E+01   -.497E-13 -.501E-13 -.178E-02
 -----------------------------------------------------------------------------------------------
   0.277E-12 -.399E-12 0.242E-12   0.208E-17 -.301E-16 0.000E+00   -.827E-24 -.162E-26 -.888E-15   -.108E-12 -.105E-12 -.275E-13
 
 
 POSITION                                       TOTAL-FORCE (eV/Angst)
 -----------------------------------------------------------------------------------
      5.00000      5.00000      3.32601         0.000000      0.000000     -0.249075
      5.00000      5.00000      6.67399         0.000000      0.000000      0.249075
      5.00000      5.00000      5.60808         0.000000      0.000000     -1.086442
      5.00000      5.00000      4.39192         0.000000      0.000000      1.086442
 -----------------------------------------------------------------------------------
    total drift:                                0.000000      0.000000      0.000000


--------------------------------------------------------------------------------------------------------



  FREE ENERGIE OF THE ION-ELECTRON SYSTEM (eV)
  ---------------------------------------------------
  free  energy   TOTEN  =       -22.914841 eV

  energy  without entropy=      -22.914841  energy(sigma->0) =      -22.914841
 


--------------------------------------------------------------------------------------------------------


    POTLOK:  cpu time    3.77: real time    3.77


--------------------------------------------------------------------------------------------------------




--------------------------------------------------------------------------------------------------------


    WAVPRE:  cpu time    0.29: real time    0.29
    FEWALD:  cpu time    0.00: real time    0.00
    ORTHCH:  cpu time    0.06: real time    0.06
     LOOP+:  cpu time  117.24: real time  118.29


----------------------------------------- Iteration    2(   1)  ---------------------------------------


    POTLOK:  cpu time    3.48: real time    3.48
    SETDIJ:  cpu time    0.05: real time    0.05
     EDDAV:  cpu time    1.82: real time    1.82
       DOS:  cpu time    0.00: real time    0.00
    CHARGE:  cpu time    0.40: real time    0.40
    MIXING:  cpu time    0.07: real time    0.07
    --------------------------------------------
      LOOP:  cpu time    5.82: real time    5.83

 eigenvalue-minimisations  :    48
 total energy-change (2. order) : 0.5776658E+00  (-0.2048473E+01)
 number of electron      10.0000001 magnetization       0.0000066
 augmentation part        0.2298583 magnetization       0.0000787

 Broyden mixing:
  rms(total) = 0.18734E+00    rms(broyden)= 0.18716E+00
  rms(prec ) = 0.24231E+00
  weight for this iteration     100.00

 Free energy of the ion-electron system (eV)
  ---------------------------------------------------
  alpha Z        PSCENC =         0.45612485
  Ewald energy   TEWEN  =       163.23530021
  -1/2 Hartree   DENC   =      -413.99565926
  -exchange  EXHF       =         0.00000000
  -V(xc)+E(xc)   XCENC  =        32.96782752
  PAW double counting   =       148.81913501     -151.42133709
  entropy T*S    EENTRO =         0.00000000
  eigenvalues    EBANDS =      -121.47602077
  atomic energy  EATOM  =       319.07750188
  ---------------------------------------------------
  free energy    TOTEN  =       -22.33712765 eV

  energy without entropy =      -22.33712765  energy(sigma->0) =      -22.33712765


--------------------------------------------------------------------------------------------------------




----------------------------------------- Iteration    2(   2)  ---------------------------------------


    POTLOK:  cpu time    4.00: real time    4.01
    SETDIJ:  cpu time    0.06: real time    0.06
     EDDAV:  cpu time    2.63: real time    2.63
       DOS:  cpu time    0.00: real time    0.00
    CHARGE:  cpu time    0.53: real time    0.53
    MIXING:  cpu time    0.09: real time    0.09
    --------------------------------------------
      LOOP:  cpu time    7.32: real time    7.59

 eigenvalue-minimisations  :    64
 total energy-change (2. order) : 0.9460682E-01  (-0.3172382E-01)
 number of electron      10.0000000 magnetization       0.0000007
 augmentation part        0.2308729 magnetization      -0.0000101

 Broyden mixing:
  rms(total) = 0.97634E-01    rms(broyden)= 0.97614E-01
  rms(prec ) = 0.12335E+00
  weight for this iteration     100.00

 eigenvalues of (default mixing * dielectric matrix)
  average eigenvalue GAMMA=   2.0329
  2.0329

 Free energy of the ion-electron system (eV)
  ---------------------------------------------------
  alpha Z        PSCENC =         0.45612485
  Ewald energy   TEWEN  =       163.23530021
  -1/2 Hartree   DENC   =      -417.02902875
  -exchange  EXHF       =         0.00000000
  -V(xc)+E(xc)   XCENC  =        33.10466642
  PAW double counting   =       157.62134747     -160.27820877
  entropy T*S    EENTRO =         0.00000000
  eigenvalues    EBANDS =      -118.43022415
  atomic energy  EATOM  =       319.07750188
  ---------------------------------------------------
  free energy    TOTEN  =       -22.24252083 eV

  energy without entropy =      -22.24252083  energy(sigma->0) =      -22.24252083


--------------------------------------------------------------------------------------------------------




----------------------------------------- Iteration    2(   3)  ---------------------------------------


    POTLOK:  cpu time    4.07: real time    4.08
    SETDIJ:  cpu time    0.06: real time    0.06
     EDDAV:  cpu time    2.60: real time    2.61
       DOS:  cpu time    0.00: real time    0.00
    CHARGE:  cpu time    0.50: real time    0.50
    MIXING:  cpu time    0.10: real time    0.10
    --------------------------------------------
      LOOP:  cpu time    7.34: real time    7.36

 eigenvalue-minimisations  :    56
 total energy-change (2. order) : 0.1917209E-01  (-0.2562036E-01)
 number of electron      10.0000000 magnetization       0.0000012
 augmentation part        0.2253203 magnetization       0.0000133

 Broyden mixing:
  rms(total) = 0.35006E-01    rms(broyden)= 0.34958E-01
  rms(prec ) = 0.49567E-01
  weight for this iteration     100.00

 eigenvalues of (default mixing * dielectric matrix)
  average eigenvalue GAMMA=   1.2474
  0.8029  1.6919

 Free energy of the ion-electron system (eV)
  ---------------------------------------------------
  alpha Z        PSCENC =         0.45612485
  Ewald energy   TEWEN  =       163.23530021
  -1/2 Hartree   DENC   =      -419.98320212
  -exchange  EXHF       =         0.00000000
  -V(xc)+E(xc)   XCENC  =        33.24358683
  PAW double counting   =       166.72894578     -169.43988039
  entropy T*S    EENTRO =         0.00000000
  eigenvalues    EBANDS =      -115.54172578
  atomic energy  EATOM  =       319.07750188
  ---------------------------------------------------
  free energy    TOTEN  =       -22.22334874 eV

  energy without entropy =      -22.22334874  energy(sigma->0) =      -22.22334874


--------------------------------------------------------------------------------------------------------




----------------------------------------- Iteration    2(   4)  ---------------------------------------


    POTLOK:  cpu time    4.08: real time    4.08
    SETDIJ:  cpu time    0.06: real time    0.06
     EDDAV:  cpu time    2.36: real time    2.36
       DOS:  cpu time    0.00: real time    0.00
    CHARGE:  cpu time    0.48: real time    0.48
    MIXING:  cpu time    0.09: real time    0.09
    --------------------------------------------
      LOOP:  cpu time    7.07: real time    7.09

 eigenvalue-minimisations  :    56
 total energy-change (2. order) : 0.4457899E-02  (-0.2361576E-02)
 number of electron      10.0000000 magnetization       0.0000000
 augmentation part        0.2268453 magnetization       0.0000042

 Broyden mixing:
  rms(total) = 0.12625E-01    rms(broyden)= 0.12617E-01
  rms(prec ) = 0.15421E-01
  weight for this iteration     100.00

 eigenvalues of (default mixing * dielectric matrix)
  average eigenvalue GAMMA=   1.4856
  2.1537  1.1515  1.1515

 Free energy of the ion-electron system (eV)
  ---------------------------------------------------
  alpha Z        PSCENC =         0.45612485
  Ewald energy   TEWEN  =       163.23530021
  -1/2 Hartree   DENC   =      -419.01135248
  -exchange  EXHF       =         0.00000000
  -V(xc)+E(xc)   XCENC  =        33.19723778
  PAW double counting   =       164.99709879     -167.69222149
  entropy T*S    EENTRO =         0.00000000
  eigenvalues    EBANDS =      -116.47858039
  atomic energy  EATOM  =       319.07750188
  ---------------------------------------------------
  free energy    TOTEN  =       -22.21889084 eV

  energy without entropy =      -22.21889084  energy(sigma->0) =      -22.21889084


--------------------------------------------------------------------------------------------------------




----------------------------------------- Iteration    2(   5)  ---------------------------------------


    POTLOK:  cpu time    3.43: real time    3.43
    SETDIJ:  cpu time    0.05: real time    0.05
     EDDAV:  cpu time    1.51: real time    1.51
       DOS:  cpu time    0.00: real time    0.00
    --------------------------------------------
      LOOP:  cpu time    4.98: real time    5.00

 eigenvalue-minimisations  :    40
 total energy-change (2. order) :-0.6098259E-05  (-0.8075236E-04)
 number of electron      10.0000000 magnetization       0.0000000
 augmentation part        0.2268453 magnetization       0.0000042

 Free energy of the ion-electron system (eV)
  ---------------------------------------------------
  alpha Z        PSCENC =         0.45612485
  Ewald energy   TEWEN  =       163.23530021
  -1/2 Hartree   DENC   =      -418.96936182
  -exchange  EXHF       =         0.00000000
  -V(xc)+E(xc)   XCENC  =        33.19505347
  PAW double counting   =       166.15271914     -168.84749699
  entropy T*S    EENTRO =         0.00000000
  eigenvalues    EBANDS =      -116.51873768
  atomic energy  EATOM  =       319.07750188
  ---------------------------------------------------
  free energy    TOTEN  =       -22.21889694 eV

  energy without entropy =      -22.21889694  energy(sigma->0) =      -22.21889694


--------------------------------------------------------------------------------------------------------




 average (electrostatic) potential at core
  the test charge radii are     0.5201  0.6991
  (the norm of the test charge is              1.0000)
       1 -42.8385       2 -42.8385       3 -58.6572       4 -58.6572
 
 
 
 E-fermi :  -6.3693     XC(G=0):  -0.9535     alpha+bet : -0.2560


 spin component 1

 k-point   1 :       0.0000    0.0000    0.0000
  band No.  band energies     occupation 
      1     -18.7963      1.00000
      2     -13.1382      1.00000
      3     -11.6066      1.00000
      4      -7.3590      1.00000
      5      -7.3590      1.00000
      6      -0.4333      0.00000
      7       0.4036      0.00000
      8       0.4036      0.00000
      9       0.5447      0.00000
     10       0.7260      0.00000

 spin component 2

 k-point   1 :       0.0000    0.0000    0.0000
  band No.  band energies     occupation 
      1     -18.7968      1.00000
      2     -13.1380      1.00000
      3     -11.6065      1.00000
      4      -7.3592      1.00000
      5      -7.3592      1.00000
      6      -0.4426      0.00000
      7       0.4021      0.00000
      8       0.4021      0.00000
      9       0.5389      0.00000
     10       0.7106      0.00000


--------------------------------------------------------------------------------------------------------


 soft charge-density along one line, spin component           1
         0         1         2         3         4         5         6         7         8         9
 total charge-density along one line
 
 soft charge-density along one line, spin component           2
         0         1         2         3         4         5         6         7         8         9
 total charge-density along one line
 
 pseudopotential strength for first ion, spin component:           1
 -2.363  -0.013   0.000  -0.002   0.000
 -0.013   0.049   0.000  -0.001   0.000
  0.000   0.000  -0.336   0.000   0.000
 -0.002  -0.001   0.000  -0.332   0.000
  0.000   0.000   0.000   0.000  -0.336
 pseudopotential strength for first ion, spin component:           2
 -2.363  -0.013   0.000  -0.002   0.000
 -0.013   0.049   0.000  -0.001   0.000
  0.000   0.000  -0.336   0.000   0.000
 -0.002  -0.001   0.000  -0.332   0.000
  0.000   0.000   0.000   0.000  -0.336
 total augmentation occupancy for first ion, spin component:           1
  1.550  -0.596   0.000   0.269   0.000
 -0.596   0.240   0.000  -0.106   0.000
  0.000   0.000   0.007   0.000   0.000
  0.269  -0.106   0.000   0.047   0.000
  0.000   0.000   0.000   0.000   0.007
 total augmentation occupancy for first ion, spin component:           2
  0.000   0.000   0.000   0.000   0.000
  0.000   0.000   0.000   0.000   0.000
  0.000   0.000   0.000   0.000   0.000
  0.000   0.000   0.000   0.000   0.000
  0.000   0.000   0.000   0.000   0.000


------------------------ aborting loop because EDIFF is reached ----------------------------------------


    CHARGE:  cpu time    0.34: real time    0.35
    FORLOC:  cpu time    0.13: real time    0.13
    FORNL :  cpu time    0.24: real time    0.25
    STRESS:  cpu time    0.65: real time    0.67
    FORHAR:  cpu time    0.43: real time    0.44
    MIXING:  cpu time    0.08: real time    0.08

  FORCE on cell =-STRESS in cart. coord.  units (eV):
  Direction    XX          YY          ZZ          XY          YZ          ZX
  --------------------------------------------------------------------------------------
  Alpha Z     0.45612     0.45612     0.45612
  Ewald     -69.18453   -69.18453   301.60431     0.00000     0.00000     0.00000
  Hartree    98.90003    98.90003   221.24041     0.00000     0.00000     0.00000
  E(xc)     -35.46711   -35.46711   -33.90243     0.00000     0.00000     0.00000
  Local    -141.38932  -141.38932  -580.43040     0.00000     0.00000     0.00000
  n-local   -11.62000   -11.62000   -11.31316     0.00000     0.00000     0.00000
  augment    -0.42496    -0.42496    -0.94266     0.00000     0.00000     0.00000
  Kinetic   157.54626   157.54626   112.48020     0.00000     0.00000     0.00000
  Fock        0.00000     0.00000     0.00000     0.00000     0.00000     0.00000
  -------------------------------------------------------------------------------------
  Total      -1.18351    -1.18351     9.19239     0.00000     0.00000     0.00000
  in kB      -1.89619    -1.89619    14.72784     0.00000     0.00000     0.00000
  external pressure =        3.65 kB  Pullay stress =        0.00 kB


 VOLUME and BASIS-vectors are now :
 -----------------------------------------------------------------------------
  energy-cutoff  :      350.00
  volume of cell :     1000.00
      direct lattice vectors                 reciprocal lattice vectors
    10.000000000  0.000000000  0.000000000     0.100000000  0.000000000  0.000000000
     0.000000000 10.000000000  0.000000000     0.000000000  0.100000000  0.000000000
     0.000000000  0.000000000 10.000000000     0.000000000  0.000000000  0.100000000

  length of vectors
    10.000000000 10.000000000 10.000000000     0.100000000  0.100000000  0.100000000


 FORCES acting on ions
    electron-ion (+dipol)            ewald-force                    non-local-force                 convergence-correction
 -----------------------------------------------------------------------------------------------
   0.250E-13 -.294E-13 0.533E+02   -.592E-17 -.685E-18 -.566E+02   -.582E-25 -.388E-25 0.523E+01   -.954E-14 -.136E-13 0.156E-02
   0.251E-13 -.735E-13 -.533E+02   -.590E-17 -.262E-17 0.566E+02   0.584E-25 0.646E-25 -.523E+01   -.580E-14 -.809E-14 -.156E-02
   0.120E-12 -.289E-12 -.138E+03   0.413E-16 0.175E-16 0.151E+03   -.103E-24 0.517E-25 0.168E+01   -.476E-13 -.712E-13 -.517E-01
   0.119E-12 0.186E-12 0.138E+03   -.274E-16 -.443E-16 -.151E+03   0.517E-25 -.517E-25 -.168E+01   -.583E-13 -.894E-13 0.517E-01
 -----------------------------------------------------------------------------------------------
   0.290E-12 -.206E-12 0.142E-12   0.208E-17 -.301E-16 0.000E+00   -.515E-25 0.258E-25 0.000E+00   -.121E-12 -.182E-12 0.206E-12
 
 
 POSITION                                       TOTAL-FORCE (eV/Angst)
 -----------------------------------------------------------------------------------
      5.00000      5.00000      3.31399         0.000000      0.000000      1.932594
      5.00000      5.00000      6.68601         0.000000      0.000000     -1.932594
      5.00000      5.00000      5.55567         0.000000      0.000000     15.201036
      5.00000      5.00000      4.44433         0.000000      0.000000    -15.201036
 -----------------------------------------------------------------------------------
    total drift:                                0.000000      0.000000      0.000000


--------------------------------------------------------------------------------------------------------



  FREE ENERGIE OF THE ION-ELECTRON SYSTEM (eV)
  ---------------------------------------------------
  free  energy   TOTEN  =       -22.218897 eV

  energy  without entropy=      -22.218897  energy(sigma->0) =      -22.218897
 
 d Force =-0.7600152E+00[-0.164E+01, 0.120E+00]  d Energy =-0.6959442E+00-0.641E-01
 d Force =-0.1251884E+02[-0.145E+02,-0.105E+02]  d Ewald  =-0.1245668E+02-0.622E-01


--------------------------------------------------------------------------------------------------------


    POTLOK:  cpu time    3.61: real time    3.61


--------------------------------------------------------------------------------------------------------


 Steepest descent step on ions:
 trial-energy change:    0.695944  1 .order    0.760015   -0.119873    1.639903
  (g-gl).g = 0.120E+00      g.g   = 0.120E+00  gl.gl    = 0.000E+00
 g(Force)  = 0.120E+00   g(Stress)= 0.000E+00 ortho     = 0.000E+00
 gamma     =   0.00000
 trial     =   1.00000
 opt step  =   0.08513  (harmonic =   0.06812) maximal distance =0.00446202
 next E    =   -22.919983   (d E  =  -0.00514)


--------------------------------------------------------------------------------------------------------


    WAVPRE:  cpu time    0.27: real time    0.28
    FEWALD:  cpu time    0.00: real time    0.00
    ORTHCH:  cpu time    0.05: real time    0.05
     LOOP+:  cpu time   38.42: real time   38.80


----------------------------------------- Iteration    3(   1)  ---------------------------------------


    POTLOK:  cpu time    3.95: real time    3.96
    SETDIJ:  cpu time    0.07: real time    0.07
     EDDAV:  cpu time    2.30: real time    2.30
       DOS:  cpu time    0.00: real time    0.00
    CHARGE:  cpu time    0.59: real time    0.59
    MIXING:  cpu time    0.09: real time    0.09
    --------------------------------------------
      LOOP:  cpu time    7.00: real time    7.00

 eigenvalue-minimisations  :    44
 total energy-change (2. order) :-0.7961684E+00  (-0.1737032E+01)
 number of electron       9.9999987 magnetization       0.0000000
 augmentation part        0.2090162 magnetization      -0.0001518

 Broyden mixing:
  rms(total) = 0.16753E+00    rms(broyden)= 0.16737E+00
  rms(prec ) = 0.21876E+00
  weight for this iteration     100.00

 Free energy of the ion-electron system (eV)
  ---------------------------------------------------
  alpha Z        PSCENC =         0.45612485
  Ewald energy   TEWEN  =       151.68751157
  -1/2 Hartree   DENC   =      -411.86716083
  -exchange  EXHF       =         0.00000000
  -V(xc)+E(xc)   XCENC  =        32.97392305
  PAW double counting   =       166.18972263     -168.88344115
  entropy T*S    EENTRO =         0.00000000
  eigenvalues    EBANDS =      -112.64924121
  atomic energy  EATOM  =       319.07750188
  ---------------------------------------------------
  free energy    TOTEN  =       -23.01505921 eV

  energy without entropy =      -23.01505921  energy(sigma->0) =      -23.01505921


--------------------------------------------------------------------------------------------------------




----------------------------------------- Iteration    3(   2)  ---------------------------------------


    POTLOK:  cpu time    3.57: real time    3.57
    SETDIJ:  cpu time    0.05: real time    0.05
     EDDAV:  cpu time    2.17: real time    2.17
       DOS:  cpu time    0.00: real time    0.00
    CHARGE:  cpu time    0.41: real time    0.41
    MIXING:  cpu time    0.07: real time    0.07
    --------------------------------------------
      LOOP:  cpu time    6.28: real time    6.29

 eigenvalue-minimisations  :    58
 total energy-change (2. order) : 0.7702065E-01  (-0.2896537E-01)
 number of electron       9.9999987 magnetization       0.0000000
 augmentation part        0.2097158 magnetization      -0.0000065

 Broyden mixing:
  rms(total) = 0.86862E-01    rms(broyden)= 0.86839E-01
  rms(prec ) = 0.10854E+00
  weight for this iteration     100.00

 eigenvalues of (default mixing * dielectric matrix)
  average eigenvalue GAMMA=   1.8869
  1.8869

 Free energy of the ion-electron system (eV)
  ---------------------------------------------------
  alpha Z        PSCENC =         0.45612485
  Ewald energy   TEWEN  =       151.68751157
  -1/2 Hartree   DENC   =      -409.07759760
  -exchange  EXHF       =         0.00000000
  -V(xc)+E(xc)   XCENC  =        32.84272229
  PAW double counting   =       157.50872252     -160.14909823
  entropy T*S    EENTRO =         0.00000000
  eigenvalues    EBANDS =      -115.28392583
  atomic energy  EATOM  =       319.07750188
  ---------------------------------------------------
  free energy    TOTEN  =       -22.93803855 eV

  energy without entropy =      -22.93803855  energy(sigma->0) =      -22.93803855


--------------------------------------------------------------------------------------------------------




----------------------------------------- Iteration    3(   3)  ---------------------------------------


    POTLOK:  cpu time    3.51: real time    3.51
    SETDIJ:  cpu time    0.05: real time    0.05
     EDDAV:  cpu time    1.92: real time    1.92
       DOS:  cpu time    0.00: real time    0.00
    CHARGE:  cpu time    0.56: real time    0.56
    MIXING:  cpu time    0.10: real time    0.10
    --------------------------------------------
      LOOP:  cpu time    6.15: real time    6.16

 eigenvalue-minimisations  :    44
 total energy-change (2. order) : 0.1777303E-01  (-0.1387683E-01)
 number of electron       9.9999986 magnetization       0.0000000
 augmentation part        0.2127687 magnetization      -0.0000003

 Broyden mixing:
  rms(total) = 0.20673E-01    rms(broyden)= 0.20625E-01
  rms(prec ) = 0.28400E-01
  weight for this iteration     100.00

 eigenvalues of (default mixing * dielectric matrix)
  average eigenvalue GAMMA=   1.5627
  1.5627  1.5627

 Free energy of the ion-electron system (eV)
  ---------------------------------------------------
  alpha Z        PSCENC =         0.45612485
  Ewald energy   TEWEN  =       151.68751157
  -1/2 Hartree   DENC   =      -407.10894318
  -exchange  EXHF       =         0.00000000
  -V(xc)+E(xc)   XCENC  =        32.75385759
  PAW double counting   =       150.56269422     -153.16421840
  entropy T*S    EENTRO =         0.00000000
  eigenvalues    EBANDS =      -117.18479406
  atomic energy  EATOM  =       319.07750188
  ---------------------------------------------------
  free energy    TOTEN  =       -22.92026552 eV

  energy without entropy =      -22.92026552  energy(sigma->0) =      -22.92026552


--------------------------------------------------------------------------------------------------------




----------------------------------------- Iteration    3(   4)  ---------------------------------------


    POTLOK:  cpu time    3.82: real time    3.82
    SETDIJ:  cpu time    0.06: real time    0.06
     EDDAV:  cpu time    1.78: real time    1.78
       DOS:  cpu time    0.00: real time    0.00
    CHARGE:  cpu time    0.47: real time    0.47
    MIXING:  cpu time    0.08: real time    0.08
    --------------------------------------------
      LOOP:  cpu time    6.21: real time    6.37

 eigenvalue-minimisations  :    40
 total energy-change (2. order) : 0.5459459E-04  (-0.2064012E-02)
 number of electron       9.9999986 magnetization       0.0000000
 augmentation part        0.2117600 magnetization       0.0000143

 Broyden mixing:
  rms(total) = 0.15011E-01    rms(broyden)= 0.15009E-01
  rms(prec ) = 0.18627E-01
  weight for this iteration     100.00

 eigenvalues of (default mixing * dielectric matrix)
  average eigenvalue GAMMA=   1.4684
  1.7903  1.7903  0.8245

 Free energy of the ion-electron system (eV)
  ---------------------------------------------------
  alpha Z        PSCENC =         0.45612485
  Ewald energy   TEWEN  =       151.68751157
  -1/2 Hartree   DENC   =      -407.97575629
  -exchange  EXHF       =         0.00000000
  -V(xc)+E(xc)   XCENC  =        32.79517183
  PAW double counting   =       151.51186180     -154.12566651
  entropy T*S    EENTRO =         0.00000000
  eigenvalues    EBANDS =      -116.34696007
  atomic energy  EATOM  =       319.07750188
  ---------------------------------------------------
  free energy    TOTEN  =       -22.92021093 eV

  energy without entropy =      -22.92021093  energy(sigma->0) =      -22.92021093


--------------------------------------------------------------------------------------------------------




----------------------------------------- Iteration    3(   5)  ---------------------------------------


    POTLOK:  cpu time    3.55: real time    3.55
    SETDIJ:  cpu time    0.06: real time    0.06
     EDDAV:  cpu time    1.76: real time    1.76
       DOS:  cpu time    0.00: real time    0.00
    CHARGE:  cpu time    0.46: real time    0.46
    MIXING:  cpu time    0.09: real time    0.09
    --------------------------------------------
      LOOP:  cpu time    5.92: real time    5.93

 eigenvalue-minimisations  :    44
 total energy-change (2. order) : 0.4604530E-03  (-0.2126080E-03)
 number of electron       9.9999986 magnetization       0.0000000
 augmentation part        0.2119768 magnetization      -0.0000007

 Broyden mixing:
  rms(total) = 0.24919E-02    rms(broyden)= 0.24911E-02
  rms(prec ) = 0.32652E-02
  weight for this iteration     100.00

 eigenvalues of (default mixing * dielectric matrix)
  average eigenvalue GAMMA=   1.4373
  2.4835  1.2744  1.2744  0.7170

 Free energy of the ion-electron system (eV)
  ---------------------------------------------------
  alpha Z        PSCENC =         0.45612485
  Ewald energy   TEWEN  =       151.68751157
  -1/2 Hartree   DENC   =      -407.73887663
  -exchange  EXHF       =         0.00000000
  -V(xc)+E(xc)   XCENC  =        32.78515823
  PAW double counting   =       150.17824449     -152.78677224
  entropy T*S    EENTRO =         0.00000000
  eigenvalues    EBANDS =      -116.57864263
  atomic energy  EATOM  =       319.07750188
  ---------------------------------------------------
  free energy    TOTEN  =       -22.91975047 eV

  energy without entropy =      -22.91975047  energy(sigma->0) =      -22.91975047


--------------------------------------------------------------------------------------------------------




----------------------------------------- Iteration    3(   6)  ---------------------------------------


    POTLOK:  cpu time    3.61: real time    3.61
    SETDIJ:  cpu time    0.05: real time    0.05
     EDDAV:  cpu time    1.85: real time    1.85
       DOS:  cpu time    0.00: real time    0.00
    --------------------------------------------
      LOOP:  cpu time    5.51: real time    6.38

 eigenvalue-minimisations  :    46
 total energy-change (2. order) :-0.6013905E-04  (-0.4225961E-04)
 number of electron       9.9999986 magnetization       0.0000000
 augmentation part        0.2119768 magnetization      -0.0000007

 Free energy of the ion-electron system (eV)
  ---------------------------------------------------
  alpha Z        PSCENC =         0.45612485
  Ewald energy   TEWEN  =       151.68751157
  -1/2 Hartree   DENC   =      -407.65030024
  -exchange  EXHF       =         0.00000000
  -V(xc)+E(xc)   XCENC  =        32.78096125
  PAW double counting   =       149.90820336     -152.51521827
  entropy T*S    EENTRO =         0.00000000
  eigenvalues    EBANDS =      -116.66459501
  atomic energy  EATOM  =       319.07750188
  ---------------------------------------------------
  free energy    TOTEN  =       -22.91981061 eV

  energy without entropy =      -22.91981061  energy(sigma->0) =      -22.91981061


--------------------------------------------------------------------------------------------------------




 average (electrostatic) potential at core
  the test charge radii are     0.5201  0.6991
  (the norm of the test charge is              1.0000)
       1 -43.4277       2 -43.4277       3 -58.9303       4 -58.9303
 
 
 
 E-fermi :  -6.0415     XC(G=0):  -0.7215     alpha+bet : -0.2560


 spin component 1

 k-point   1 :       0.0000    0.0000    0.0000
  band No.  band energies     occupation 
      1     -18.4612      1.00000
      2     -13.8577      1.00000
      3     -11.9739      1.00000
      4      -7.0196      1.00000
      5      -7.0196      1.00000
      6      -0.2828      0.00000
      7      -0.2467      0.00000
      8      -0.2467      0.00000
      9       0.6574      0.00000
     10       0.9159      0.00000

 spin component 2

 k-point   1 :       0.0000    0.0000    0.0000
  band No.  band energies     occupation 
      1     -18.4614      1.00000
      2     -13.8577      1.00000
      3     -11.9740      1.00000
      4      -7.0197      1.00000
      5      -7.0197      1.00000
      6      -0.2791      0.00000
      7      -0.2469      0.00000
      8      -0.2469      0.00000
      9       0.6575      0.00000
     10       0.9220      0.00000


--------------------------------------------------------------------------------------------------------


 soft charge-density along one line, spin component           1
         0         1         2         3         4         5         6         7         8         9
 total charge-density along one line
 
 soft charge-density along one line, spin component           2
         0         1         2         3         4         5         6         7         8         9
 total charge-density along one line
 
 pseudopotential strength for first ion, spin component:           1
 -2.368  -0.015   0.000  -0.002   0.000
 -0.015   0.049   0.000  -0.002   0.000
  0.000   0.000  -0.332   0.000   0.000
 -0.002  -0.002   0.000  -0.327   0.000
  0.000   0.000   0.000   0.000  -0.332
 pseudopotential strength for first ion, spin component:           2
 -2.368  -0.015   0.000  -0.002   0.000
 -0.015   0.049   0.000  -0.002   0.000
  0.000   0.000  -0.332   0.000   0.000
 -0.002  -0.002   0.000  -0.327   0.000
  0.000   0.000   0.000   0.000  -0.332
 total augmentation occupancy for first ion, spin component:           1
  1.667  -0.637   0.000   0.320   0.000
 -0.637   0.257   0.000  -0.125   0.000
  0.000   0.000   0.010   0.000   0.000
  0.320  -0.125   0.000   0.062   0.000
  0.000   0.000   0.000   0.000   0.010
 total augmentation occupancy for first ion, spin component:           2
  0.000   0.000   0.000   0.000   0.000
  0.000   0.000   0.000   0.000   0.000
  0.000   0.000   0.000   0.000   0.000
  0.000   0.000   0.000   0.000   0.000
  0.000   0.000   0.000   0.000   0.000


------------------------ aborting loop because EDIFF is reached ----------------------------------------


    CHARGE:  cpu time    0.45: real time    0.45
    FORLOC:  cpu time    0.14: real time    0.14
    FORNL :  cpu time    0.28: real time    0.28
    STRESS:  cpu time    0.76: real time    0.76
    FORHAR:  cpu time    0.50: real time    0.50
    MIXING:  cpu time    0.10: real time    0.10

  FORCE on cell =-STRESS in cart. coord.  units (eV):
  Direction    XX          YY          ZZ          XY          YZ          ZX
  --------------------------------------------------------------------------------------
  Alpha Z     0.45612     0.45612     0.45612
  Ewald     -69.23346   -69.23346   290.15437     0.00000     0.00000     0.00000
  Hartree    94.42486    94.42486   218.81892     0.00000     0.00000     0.00000
  E(xc)     -35.03865   -35.03865   -33.49959     0.00000     0.00000     0.00000
  Local    -135.01046  -135.01046  -574.25846     0.00000     0.00000     0.00000
  n-local   -11.25675   -11.25675   -11.08117     0.00000     0.00000     0.00000
  augment    -0.34752    -0.34752    -0.67854     0.00000     0.00000     0.00000
  Kinetic   154.87401   154.87401   109.03334     0.00000     0.00000     0.00000
  Fock        0.00000     0.00000     0.00000     0.00000     0.00000     0.00000
  -------------------------------------------------------------------------------------
  Total      -1.13184    -1.13184    -1.05502     0.00000     0.00000     0.00000
  in kB      -1.81341    -1.81341    -1.69033     0.00000     0.00000     0.00000
  external pressure =       -1.77 kB  Pullay stress =        0.00 kB


 VOLUME and BASIS-vectors are now :
 -----------------------------------------------------------------------------
  energy-cutoff  :      350.00
  volume of cell :     1000.00
      direct lattice vectors                 reciprocal lattice vectors
    10.000000000  0.000000000  0.000000000     0.100000000  0.000000000  0.000000000
     0.000000000 10.000000000  0.000000000     0.000000000  0.100000000  0.000000000
     0.000000000  0.000000000 10.000000000     0.000000000  0.000000000  0.100000000

  length of vectors
    10.000000000 10.000000000 10.000000000     0.100000000  0.100000000  0.100000000


 FORCES acting on ions
    electron-ion (+dipol)            ewald-force                    non-local-force                 convergence-correction
 -----------------------------------------------------------------------------------------------
   0.291E-13 0.800E-14 0.552E+02   -.112E-16 -.484E-17 -.614E+02   -.404E-27 -.505E-27 0.612E+01   -.908E-14 -.279E-14 -.158E-02
   0.278E-13 -.672E-13 -.552E+02   0.625E-17 0.435E-17 0.614E+02   0.404E-27 0.101E-26 -.612E+01   -.569E-14 -.516E-14 0.158E-02
   0.109E-12 -.505E-12 -.115E+03   -.182E-16 -.238E-16 0.117E+03   -.646E-26 0.129E-25 -.220E+01   -.424E-13 -.239E-13 0.528E-01
   0.113E-12 0.119E-13 0.115E+03   0.252E-16 -.578E-17 -.117E+03   -.194E-25 0.129E-25 0.220E+01   -.536E-13 -.217E-13 -.528E-01
 -----------------------------------------------------------------------------------------------
   0.280E-12 -.552E-12 0.426E-12   0.208E-17 -.301E-16 0.000E+00   -.258E-25 0.264E-25 0.000E+00   -.111E-12 -.536E-13 -.130E-12
 
 
 POSITION                                       TOTAL-FORCE (eV/Angst)
 -----------------------------------------------------------------------------------
      5.00000      5.00000      3.32499         0.000000      0.000000     -0.032515
      5.00000      5.00000      6.67501         0.000000      0.000000      0.032515
      5.00000      5.00000      5.60362         0.000000      0.000000      0.008301
      5.00000      5.00000      4.39638         0.000000      0.000000     -0.008301
 -----------------------------------------------------------------------------------
    total drift:                                0.000000      0.000000      0.000000


--------------------------------------------------------------------------------------------------------



  FREE ENERGIE OF THE ION-ELECTRON SYSTEM (eV)
  ---------------------------------------------------
  free  energy   TOTEN  =       -22.919811 eV

  energy  without entropy=      -22.919811  energy(sigma->0) =      -22.919811
 
 d Force = 0.7501879E+00[ 0.812E-04, 0.150E+01]  d Energy = 0.7009137E+00 0.493E-01
 d Force = 0.1159629E+02[ 0.991E+01, 0.133E+02]  d Ewald  = 0.1154779E+02 0.485E-01


--------------------------------------------------------------------------------------------------------


    POTLOK:  cpu time    3.62: real time    3.62


--------------------------------------------------------------------------------------------------------




--------------------------------------------------------------------------------------------------------


  
 reached required accuracy - stopping structural energy minimisation
 writing wavefunctions
     LOOP+:  cpu time   42.98: real time   44.23
    4ORBIT:  cpu time    0.00: real time    0.00

 total amount of memory used by VASP on root node   149221. kBytes
========================================================================

   base      :      30000. kBytes
   nonl-proj :       2840. kBytes
   fftplans  :      30736. kBytes
   grid      :      80879. kBytes
   one-center:         24. kBytes
   wavefun   :       4742. kBytes
 
  
  
 General timing and accounting informations for this job:
 ========================================================
  
                  Total CPU time used (sec):      203.687
                            User time (sec):      201.321
                          System time (sec):        2.366
                         Elapsed time (sec):      206.813
  
                   Maximum memory used (kb):           0.
                   Average memory used (kb):           0.
  
                          Minor page faults:       604714
                          Major page faults:            0
                 Voluntary context switches:         3046
