<?xml version="1.0" encoding="ISO-8859-1"?>
<modeling>
 <generator>
  <i name="program" type="string">vasp </i>
  <i name="version" type="string">5.2.12  </i>
  <i name="subversion" type="string">11Nov11 complex                                                      parallel </i>
  <i name="platform" type="string">LinuxIFC </i>
  <i name="date" type="string">2012 11 01 </i>
  <i name="time" type="string">16:49:09 </i>
 </generator>
 <incar>
  <i type="string" name="PREC">normal</i>
  <i type="int" name="ISPIN">     2</i>
  <i type="int" name="IBRION">     2</i>
  <i type="int" name="NSW">     8</i>
  <i name="ENCUT">    350.00000000</i>
  <i type="int" name="NBANDS">    10</i>
  <i type="int" name="ISMEAR">     0</i>
 </incar>
 <kpoints>
  <generation param="Monkhorst-Pack">
   <v type="int" name="divisions">       1        1        1 </v>
   <v name="usershift">      0.00000000       0.00000000       0.00000000 </v>
   <v name="genvec1">      1.00000000       0.00000000       0.00000000 </v>
   <v name="genvec2">      0.00000000       1.00000000       0.00000000 </v>
   <v name="genvec3">      0.00000000       0.00000000       1.00000000 </v>
   <v name="shift">      0.00000000       0.00000000       0.00000000 </v>
  </generation>
  <varray name="kpointlist" >
   <v>       0.00000000       0.00000000       0.00000000 </v>
  </varray>
  <varray name="weights" >
   <v>       1.00000000 </v>
  </varray>
 </kpoints>
 <parameters>
  <separator name="general" >
   <i type="string" name="SYSTEM">unknown system</i>
   <i type="logical" name="LCOMPAT"> F  </i>
  </separator>
  <separator name="electronic" >
   <i type="string" name="PREC">normal</i>
   <i name="ENMAX">    350.00000000</i>
   <i name="ENAUG">    644.87300000</i>
   <i name="EDIFF">      0.00010000</i>
   <i type="int" name="IALGO">    38</i>
   <i type="int" name="IWAVPR">    11</i>
   <i type="int" name="NBANDS">    10</i>
   <i name="NELECT">     10.00000000</i>
   <i type="int" name="TURBO">     0</i>
   <i type="int" name="IRESTART">     0</i>
   <i type="int" name="NREBOOT">     0</i>
   <i type="int" name="NMIN">     0</i>
   <i name="EREF">      0.00000000</i>
   <separator name="electronic smearing" >
    <i type="int" name="ISMEAR">     0</i>
    <i name="SIGMA">      0.20000000</i>
    <i name="KSPACING">      0.50000000</i>
    <i type="logical" name="KGAMMA"> T  </i>
   </separator>
   <separator name="electronic projectors" >
    <i type="logical" name="LREAL"> F  </i>
    <v name="ROPT">      0.00000000      0.00000000</v>
    <i type="int" name="LMAXPAW">  -100</i>
    <i type="int" name="LMAXMIX">     2</i>
    <i type="logical" name="NLSPLINE"> F  </i>
   </separator>
   <separator name="electronic startup" >
    <i type="int" name="ISTART">     0</i>
    <i type="int" name="ICHARG">     2</i>
    <i type="int" name="INIWAV">     1</i>
   </separator>
   <separator name="electronic spin" >
    <i type="int" name="ISPIN">     2</i>
    <i type="logical" name="LNONCOLLINEAR"> F  </i>
    <v name="MAGMOM">      1.00000000      1.00000000      1.00000000      1.00000000</v>
    <i name="NUPDOWN">     -1.00000000</i>
    <i type="logical" name="LSORBIT"> F  </i>
    <v name="SAXIS">      0.00000000      0.00000000      1.00000000</v>
    <i type="logical" name="LSPIRAL"> F  </i>
    <v name="QSPIRAL">      0.00000000      0.00000000      0.00000000</v>
    <i type="logical" name="LZEROZ"> F  </i>
   </separator>
   <separator name="electronic exchange-correlation" >
    <i type="logical" name="LASPH"> F  </i>
    <i type="logical" name="LMETAGGA"> F  </i>
   </separator>
   <separator name="electronic convergence" >
    <i type="int" name="NELM">    60</i>
    <i type="int" name="NELMDL">    -5</i>
    <i type="int" name="NELMIN">     2</i>
    <i name="ENINI">    350.00000000</i>
    <separator name="electronic convergence detail" >
     <i type="logical" name="LDIAG"> T  </i>
     <i type="logical" name="LSUBROT"> T  </i>
     <i name="WEIMIN">      0.00100000</i>
     <i name="EBREAK">      0.00000250</i>
     <i name="DEPER">      0.30000000</i>
     <i type="int" name="NRMM">     4</i>
     <i name="TIME">      0.40000000</i>
    </separator>
   </separator>
   <separator name="electronic mixer" >
    <i name="AMIX">      0.40000000</i>
    <i name="BMIX">      1.00000000</i>
    <i name="AMIN">      0.10000000</i>
    <i name="AMIX_MAG">      1.60000000</i>
    <i name="BMIX_MAG">      1.00000000</i>
    <separator name="electronic mixer details" >
     <i type="int" name="IMIX">     4</i>
     <i type="int" name="MAXMIX">   -45</i>
     <i name="WC">    100.00000000</i>
     <i type="int" name="INIMIX">     1</i>
     <i type="int" name="MIXPRE">     1</i>
     <i type="int" name="MREMOVE">     5</i>
    </separator>
   </separator>
   <separator name="electronic dipolcorrection" >
    <i type="logical" name="LDIPOL"> F  </i>
    <i type="logical" name="LMONO"> F  </i>
    <i type="int" name="IDIPOL">     0</i>
    <i name="EPSILON">      1.00000000</i>
    <v name="DIPOL">   -100.00000000   -100.00000000   -100.00000000</v>
    <i name="EFIELD">      0.00000000</i>
   </separator>
  </separator>
  <separator name="grids" >
   <i type="int" name="NGX">    48</i>
   <i type="int" name="NGY">    48</i>
   <i type="int" name="NGZ">    48</i>
   <i type="int" name="NGXF">    96</i>
   <i type="int" name="NGYF">    96</i>
   <i type="int" name="NGZF">    96</i>
   <i type="logical" name="ADDGRID"> F  </i>
  </separator>
  <separator name="ionic" >
   <i type="int" name="NSW">     8</i>
   <i type="int" name="IBRION">     2</i>
   <i type="int" name="ISIF">     2</i>
   <i name="PSTRESS">      0.00000000</i>
   <i name="EDIFFG">      0.00100000</i>
   <i type="int" name="NFREE">     1</i>
   <i name="POTIM">      0.50000000</i>
   <i name="SMASS">     -3.00000000</i>
   <i name="SCALEE">      1.00000000</i>
  </separator>
  <separator name="ionic md" >
   <i name="TEBEG">      0.00010000</i>
   <i name="TEEND">      0.00010000</i>
   <i type="int" name="NBLOCK">     1</i>
   <i type="int" name="KBLOCK">     8</i>
   <i type="int" name="NPACO">   256</i>
   <i name="APACO">     16.00000000</i>
  </separator>
  <separator name="symmetry" >
   <i type="int" name="ISYM">     2</i>
   <i name="SYMPREC">      0.00001000</i>
  </separator>
  <separator name="dos" >
   <i type="logical" name="LORBIT"> F  </i>
   <v name="RWIGS">     -1.00000000     -1.00000000</v>
   <i type="int" name="NEDOS">   301</i>
   <i name="EMIN">     10.00000000</i>
   <i name="EMAX">    -10.00000000</i>
   <i name="EFERMI">      0.00000000</i>
  </separator>
  <separator name="writing" >
   <i type="int" name="NWRITE">     2</i>
   <i type="logical" name="LWAVE"> T  </i>
   <i type="logical" name="LCHARG"> T  </i>
   <i type="logical" name="LPARD"> F  </i>
   <i type="logical" name="LVTOT"> F  </i>
   <i type="logical" name="LVHAR"> F  </i>
   <i type="logical" name="LELF"> F  </i>
   <i type="logical" name="LOPTICS"> F  </i>
   <v name="STM">      0.00000000      0.00000000      0.00000000      0.00000000      0.00000000      0.00000000      0.00000000</v>
  </separator>
  <separator name="performance" >
   <i type="int" name="NPAR">     1</i>
   <i type="int" name="NSIM">     4</i>
   <i type="int" name="NBLK">    -1</i>
   <i type="logical" name="LPLANE"> T  </i>
   <i type="logical" name="LSCALAPACK"> F  </i>
   <i type="logical" name="LSCAAWARE"> F  </i>
   <i type="logical" name="LSCALU"> F  </i>
   <i type="logical" name="LASYNC"> F  </i>
   <i type="logical" name="LORBITALREAL"> F  </i>
  </separator>
  <separator name="miscellaneous" >
   <i type="int" name="IDIOT">     3</i>
   <i type="logical" name="LMUSIC"> F  </i>
   <v name="POMASS">      1.00000000     12.01100000</v>
   <v name="DARWINR">      0.00000000      0.00000000</v>
   <v name="DARWINV">      1.00000000      1.00000000</v>
   <i type="logical" name="LCORR"> T  </i>
  </separator>
  <i type="logical" name="GGA_COMPAT"> T  </i>
  <i type="logical" name="LBERRY"> F  </i>
  <i type="int" name="ICORELEVEL">     0</i>
  <i type="logical" name="LDAU"> F  </i>
  <i type="int" name="I_CONSTRAINED_M">     0</i>
  <separator name="electronic exchange-correlation" >
   <i type="string" name="GGA">--</i>
   <i type="int" name="VOSKOWN">     0</i>
   <i type="logical" name="LHFCALC"> F  </i>
   <i type="string" name="PRECFOCK"></i>
   <i type="logical" name="LHFONE"> F  </i>
   <i type="logical" name="LRHFCALC"> F  </i>
   <i type="logical" name="LTHOMAS"> F  </i>
   <i type="logical" name="LMODELHF"> F  </i>
   <i name="ENCUT4O">     -1.00000000</i>
   <i type="int" name="EXXOEP">     0</i>
   <i type="int" name="FOURORBIT">     0</i>
   <i name="AEXX">      0.00000000</i>
   <i name="HFALPHA">      0.00000000</i>
   <i name="ALDAX">      1.00000000</i>
   <i name="AGGAX">      1.00000000</i>
   <i name="ALDAC">      1.00000000</i>
   <i name="AGGAC">      1.00000000</i>
   <i type="int" name="NKREDX">     1</i>
   <i type="int" name="NKREDY">     1</i>
   <i type="int" name="NKREDZ">     1</i>
   <i type="logical" name="SHIFTRED"> F  </i>
   <i type="logical" name="ODDONLY"> F  </i>
   <i type="logical" name="EVENONLY"> F  </i>
   <i type="int" name="LMAXFOCK">     0</i>
   <i type="int" name="NMAXFOCKAE">     0</i>
   <i type="logical" name="LFOCKAEDFT"> F  </i>
   <i name="HFSCREEN">      0.00000000</i>
   <i name="HFSCREENC">      0.00000000</i>
  </separator>
  <separator name="vdW DFT" >
   <i type="logical" name="LUSE_VDW"> F  </i>
   <i name="Zab_VDW">     -0.84910000</i>
   <i name="PARAM1">      0.12340000</i>
   <i name="PARAM2">      1.00000000</i>
   <i name="PARAM3">      0.00000000</i>
  </separator>
  <separator name="model GW" >
   <i type="int" name="MODEL_GW">     0</i>
   <i name="MODEL_EPS0">    150.00000000</i>
   <i name="MODEL_ALPHA">      1.00000000</i>
  </separator>
  <separator name="linear response parameters" >
   <i type="logical" name="LEPSILON"> F  </i>
   <i type="logical" name="LRPA"> F  </i>
   <i type="logical" name="LNABLA"> F  </i>
   <i type="logical" name="LVEL"> F  </i>
   <i type="int" name="KINTER">     0</i>
   <i name="CSHIFT">      0.10000000</i>
   <i name="OMEGAMAX">     -1.00000000</i>
  </separator>
  <separator name="orbital magnetization" >
   <i type="logical" name="NUCIND"> F  </i>
   <v name="MAGPOS">      0.00000000      0.00000000      0.00000000</v>
   <i type="logical" name="LNICSALL"> T  </i>
   <i type="logical" name="ORBITALMAG"> F  </i>
   <i type="logical" name="LMAGBLOCH"> F  </i>
   <i type="logical" name="LCHIMAG"> F  </i>
   <i type="logical" name="LGAUGE"> T  </i>
   <i type="int" name="MAGATOM">     0</i>
   <v name="MAGDIPOL">      0.00000000      0.00000000      0.00000000</v>
   <v name="AVECCONST">      0.00000000      0.00000000      0.00000000</v>
  </separator>
  <separator name="response functions" >
   <i type="logical" name="LADDER"> F  </i>
   <i type="logical" name="LHARTREE"> T  </i>
   <i type="int" name="IBSE">     0</i>
   <i type="logical" name="LTCTE"> F  </i>
   <i type="logical" name="LTETE"> F  </i>
   <i type="logical" name="LFXCEPS"> F  </i>
   <i type="logical" name="L2ORDER"> F  </i>
   <i type="logical" name="LUSEW"> F  </i>
   <i name="ENCUTGW">     -2.00000000</i>
   <i name="ENCUTGWSOFT">     -2.00000000</i>
   <i name="ENCUTLF">     -1.00000000</i>
   <i type="int" name="LMAXMP2">    -1</i>
   <i name="SCISSOR">      0.00000000</i>
   <i type="int" name="NOMEGA">     0</i>
   <i type="int" name="NOMEGAR">     0</i>
   <i type="int" name="NBANDSGW">    -1</i>
   <i type="int" name="NBANDSO">    -1</i>
   <i type="int" name="NBANDSV">    -1</i>
   <i name="OPTEMAX">      0.00000000</i>
   <i type="int" name="NELM">     1</i>
   <i type="int" name="DIM">     3</i>
   <i type="int" name="ANTIRES">     0</i>
   <i name="OMEGAMAX">    -30.00000000</i>
   <i name="OMEGATL">   -200.00000000</i>
   <i type="int" name="OMEGAGRID">     0</i>
   <i name="CSHIFT">     -0.10000000</i>
   <i type="logical" name="SELFENERGY"> F  </i>
   <i type="logical" name="LSPECTRAL"> F  </i>
   <i type="logical" name="ODDONLYGW"> F  </i>
   <i type="logical" name="EVENONLYGW"> F  </i>
   <i type="int" name="NKREDLFX">     1</i>
   <i type="int" name="NKREDLFY">     1</i>
   <i type="int" name="NKREDLFZ">     1</i>
   <i type="int" name="MAXMEM">  1800</i>
   <i type="int" name="TELESCOPE">     0</i>
  </separator>
 </parameters>
 <atominfo>
  <atoms>       4 </atoms>
  <types>       2 </types>
  <array name="atoms" >
   <dimension dim="1">ion</dimension>
   <field type="string">element</field>
   <field type="int">atomtype</field>
   <set>
    <rc><c>H </c><c>   1</c></rc>
    <rc><c>H </c><c>   1</c></rc>
    <rc><c>C </c><c>   2</c></rc>
    <rc><c>C </c><c>   2</c></rc>
   </set>
  </array>
  <array name="atomtypes" >
   <dimension dim="1">type</dimension>
   <field type="int">atomspertype</field>
   <field type="string">element</field>
   <field>mass</field>
   <field>valence</field>
   <field type="string">pseudopotential</field>
   <set>
    <rc><c>   2</c><c>H </c><c>      1.00000000</c><c>      1.00000000</c><c> PAW_PBE H 15Jun2001                    </c></rc>
    <rc><c>   2</c><c>C </c><c>     12.01100000</c><c>      4.00000000</c><c> PAW_PBE C 08Apr2002                    </c></rc>
   </set>
  </array>
 </atominfo>
 <structure name="initialpos" >
  <crystal>
   <varray name="basis" >
    <v>      10.00000000       0.00000000       0.00000000 </v>
    <v>       0.00000000      10.00000000       0.00000000 </v>
    <v>       0.00000000       0.00000000      10.00000000 </v>
   </varray>
   <i name="volume">   1000.00000000 </i>
   <varray name="rec_basis" >
    <v>       0.10000000       0.00000000       0.00000000 </v>
    <v>       0.00000000       0.10000000       0.00000000 </v>
    <v>       0.00000000       0.00000000       0.10000000 </v>
   </varray>
  </crystal>
  <varray name="positions" >
   <v>       0.50000000       0.50000000       0.33260100 </v>
   <v>       0.50000000       0.50000000       0.66739900 </v>
   <v>       0.50000000       0.50000000       0.56080800 </v>
   <v>       0.50000000       0.50000000       0.43919200 </v>
  </varray>
 </structure>
 <calculation>
  <scstep>
   <time name="dav">    2.33    2.33</time>
   <time name="total">    5.68    5.68</time>
   <energy>
    <i name="alphaZ">      0.45612485 </i>
    <i name="ewald">    150.77861747 </i>
    <i name="hartreedc">   -363.01658269 </i>
    <i name="XCdc">     31.19522852 </i>
    <i name="pawpsdc">     76.49782901 </i>
    <i name="pawaedc">    -78.79783386 </i>
    <i name="eentropy">     -0.05041623 </i>
    <i name="bandstr">   -103.75215650 </i>
    <i name="atom">    319.07750188 </i>
    <i name="e_fr_energy">     32.38831246 </i>
    <i name="e_wo_entrp">     32.43872869 </i>
    <i name="e_0_energy">     32.41352058 </i>
   </energy>
  </scstep>
  <scstep>
   <time name="dav">    2.05    2.05</time>
   <time name="total">    2.05    2.08</time>
   <energy>
    <i name="e_fr_energy">    -16.37248021 </i>
    <i name="e_wo_entrp">    -16.37248021 </i>
    <i name="e_0_energy">    -16.37248021 </i>
   </energy>
  </scstep>
  <scstep>
   <time name="dav">    3.48    3.49</time>
   <time name="total">    3.48    3.51</time>
   <energy>
    <i name="e_fr_energy">    -22.22064113 </i>
    <i name="e_wo_entrp">    -22.22064113 </i>
    <i name="e_0_energy">    -22.22064113 </i>
   </energy>
  </scstep>
  <scstep>
   <time name="dav">    2.31    2.31</time>
   <time name="total">    2.31    2.33</time>
   <energy>
    <i name="e_fr_energy">    -22.26454450 </i>
    <i name="e_wo_entrp">    -22.26454450 </i>
    <i name="e_0_energy">    -22.26454450 </i>
   </energy>
  </scstep>
  <scstep>
   <time name="dav">    1.94    1.94</time>
   <time name="total">    2.40    2.43</time>
   <energy>
    <i name="e_fr_energy">    -22.26460893 </i>
    <i name="e_wo_entrp">    -22.26460893 </i>
    <i name="e_0_energy">    -22.26460893 </i>
   </energy>
  </scstep>
  <scstep>
   <time name="dav">    1.87    1.87</time>
   <time name="total">    5.88    5.89</time>
   <energy>
    <i name="e_fr_energy">    -11.18072159 </i>
    <i name="e_wo_entrp">    -11.18072159 </i>
    <i name="e_0_energy">    -11.18072159 </i>
   </energy>
  </scstep>
  <scstep>
   <time name="dav">    2.01    2.03</time>
   <time name="total">    6.43    6.47</time>
   <energy>
    <i name="e_fr_energy">    -19.93100667 </i>
    <i name="e_wo_entrp">    -19.93100667 </i>
    <i name="e_0_energy">    -19.93100667 </i>
   </energy>
  </scstep>
  <scstep>
   <time name="dav">    1.70    1.70</time>
   <time name="total">    6.23    6.34</time>
   <energy>
    <i name="e_fr_energy">    -21.85229649 </i>
    <i name="e_wo_entrp">    -21.85229649 </i>
    <i name="e_0_energy">    -21.85229649 </i>
   </energy>
  </scstep>
  <scstep>
   <time name="dav">    1.74    1.74</time>
   <time name="total">    6.10    6.15</time>
   <energy>
    <i name="e_fr_energy">    -22.75589311 </i>
    <i name="e_wo_entrp">    -22.75589311 </i>
    <i name="e_0_energy">    -22.75589311 </i>
   </energy>
  </scstep>
  <scstep>
   <time name="dav">    1.71    1.71</time>
   <time name="total">    6.24    6.28</time>
   <energy>
    <i name="e_fr_energy">    -22.88834585 </i>
    <i name="e_wo_entrp">    -22.88834585 </i>
    <i name="e_0_energy">    -22.88834585 </i>
   </energy>
  </scstep>
  <scstep>
   <time name="dav">    1.86    1.86</time>
   <time name="total">    6.30    6.33</time>
   <energy>
    <i name="e_fr_energy">    -22.89332194 </i>
    <i name="e_wo_entrp">    -22.89332194 </i>
    <i name="e_0_energy">    -22.89332194 </i>
   </energy>
  </scstep>
  <scstep>
   <time name="dav">    1.80    1.80</time>
   <time name="total">    6.24    6.27</time>
   <energy>
    <i name="e_fr_energy">    -22.89931688 </i>
    <i name="e_wo_entrp">    -22.89931688 </i>
    <i name="e_0_energy">    -22.89931688 </i>
   </energy>
  </scstep>
  <scstep>
   <time name="dav">    1.68    1.68</time>
   <time name="total">    6.04    6.06</time>
   <energy>
    <i name="e_fr_energy">    -22.90348248 </i>
    <i name="e_wo_entrp">    -22.90348248 </i>
    <i name="e_0_energy">    -22.90348248 </i>
   </energy>
  </scstep>
  <scstep>
   <time name="dav">    1.82    1.82</time>
   <time name="total">    6.16    6.18</time>
   <energy>
    <i name="e_fr_energy">    -22.90928015 </i>
    <i name="e_wo_entrp">    -22.90928015 </i>
    <i name="e_0_energy">    -22.90928015 </i>
   </energy>
  </scstep>
  <scstep>
   <time name="dav">    1.76    1.76</time>
   <time name="total">    6.04    6.06</time>
   <energy>
    <i name="e_fr_energy">    -22.91097474 </i>
    <i name="e_wo_entrp">    -22.91097474 </i>
    <i name="e_0_energy">    -22.91097474 </i>
   </energy>
  </scstep>
  <scstep>
   <time name="dav">    1.69    1.69</time>
   <time name="total">    6.00    6.01</time>
   <energy>
    <i name="e_fr_energy">    -22.91275338 </i>
    <i name="e_wo_entrp">    -22.91275338 </i>
    <i name="e_0_energy">    -22.91275338 </i>
   </energy>
  </scstep>
  <scstep>
   <time name="dav">    1.77    1.77</time>
   <time name="total">    6.11    6.12</time>
   <energy>
    <i name="e_fr_energy">    -22.91418680 </i>
    <i name="e_wo_entrp">    -22.91418680 </i>
    <i name="e_0_energy">    -22.91418680 </i>
   </energy>
  </scstep>
  <scstep>
   <time name="dav">    1.69    1.69</time>
   <time name="total">    6.00    6.01</time>
   <energy>
    <i name="e_fr_energy">    -22.91450085 </i>
    <i name="e_wo_entrp">    -22.91450085 </i>
    <i name="e_0_energy">    -22.91450085 </i>
   </energy>
  </scstep>
  <scstep>
   <time name="dav">    1.90    1.90</time>
   <time name="total">    6.23    6.25</time>
   <energy>
    <i name="e_fr_energy">    -22.91479349 </i>
    <i name="e_wo_entrp">    -22.91479349 </i>
    <i name="e_0_energy">    -22.91479349 </i>
   </energy>
  </scstep>
  <scstep>
   <time name="dav">    1.77    1.78</time>
   <time name="total">    5.47    5.48</time>
   <energy>
    <i name="alphaZ">      0.45612485 </i>
    <i name="ewald">    150.77861747 </i>
    <i name="hartreedc">   -406.63987099 </i>
    <i name="XCdc">     32.74712018 </i>
    <i name="pawpsdc">    148.81703997 </i>
    <i name="pawaedc">   -151.41917510 </i>
    <i name="eentropy">      0.00000000 </i>
    <i name="bandstr">   -116.73219941 </i>
    <i name="atom">    319.07750188 </i>
    <i name="e_fr_energy">    -22.91484114 </i>
    <i name="e_wo_entrp">    -22.91484114 </i>
    <i name="e_0_energy">    -22.91484114 </i>
   </energy>
  </scstep>
  <parameters_embedded>
   <separator name="dft+d2" >
    <i type="logical" name="LVDW"> F  </i>
   </separator>
  </parameters_embedded>
  <structure>
   <crystal>
    <varray name="basis" >
     <v>      10.00000000       0.00000000       0.00000000 </v>
     <v>       0.00000000      10.00000000       0.00000000 </v>
     <v>       0.00000000       0.00000000      10.00000000 </v>
    </varray>
    <i name="volume">   1000.00000000 </i>
    <varray name="rec_basis" >
     <v>       0.10000000       0.00000000       0.00000000 </v>
     <v>       0.00000000       0.10000000       0.00000000 </v>
     <v>       0.00000000       0.00000000       0.10000000 </v>
    </varray>
   </crystal>
   <varray name="positions" >
    <v>       0.50000000       0.50000000       0.33260100 </v>
    <v>       0.50000000       0.50000000       0.66739900 </v>
    <v>       0.50000000       0.50000000       0.56080800 </v>
    <v>       0.50000000       0.50000000       0.43919200 </v>
   </varray>
  </structure>
  <varray name="forces" >
   <v>       0.00000000       0.00000000      -0.24907496 </v>
   <v>       0.00000000       0.00000000       0.24907496 </v>
   <v>       0.00000000       0.00000000      -1.08644185 </v>
   <v>       0.00000000       0.00000000       1.08644185 </v>
  </varray>
  <varray name="stress" >
   <v>      -1.86089996       0.00000000       0.00000000 </v>
   <v>       0.00000000      -1.86089996       0.00000000 </v>
   <v>       0.00000000       0.00000000      -2.69337876 </v>
  </varray>
  <energy>
   <i name="e_fr_energy">    -22.91484114 </i>
   <i name="e_wo_entrp">    -22.91484114 </i>
   <i name="e_0_energy">      0.00000000 </i>
  </energy>
  <time name="totalsc">  117.24  118.29</time>
 </calculation>
 <calculation>
  <scstep>
   <time name="dav">    1.82    1.82</time>
   <time name="total">    5.82    5.83</time>
   <energy>
    <i name="alphaZ">      0.45612485 </i>
    <i name="ewald">    163.23530021 </i>
    <i name="hartreedc">   -413.99565926 </i>
    <i name="XCdc">     32.96782752 </i>
    <i name="pawpsdc">    148.81913501 </i>
    <i name="pawaedc">   -151.42133709 </i>
    <i name="eentropy">      0.00000000 </i>
    <i name="bandstr">   -121.47602077 </i>
    <i name="atom">    319.07750188 </i>
    <i name="e_fr_energy">    -22.33712765 </i>
    <i name="e_wo_entrp">    -22.33712765 </i>
    <i name="e_0_energy">    -22.33712765 </i>
   </energy>
  </scstep>
  <scstep>
   <time name="dav">    2.63    2.63</time>
   <time name="total">    7.32    7.59</time>
   <energy>
    <i name="e_fr_energy">    -22.24252083 </i>
    <i name="e_wo_entrp">    -22.24252083 </i>
    <i name="e_0_energy">    -22.24252083 </i>
   </energy>
  </scstep>
  <scstep>
   <time name="dav">    2.60    2.61</time>
   <time name="total">    7.34    7.36</time>
   <energy>
    <i name="e_fr_energy">    -22.22334874 </i>
    <i name="e_wo_entrp">    -22.22334874 </i>
    <i name="e_0_energy">    -22.22334874 </i>
   </energy>
  </scstep>
  <scstep>
   <time name="dav">    2.36    2.36</time>
   <time name="total">    7.07    7.09</time>
   <energy>
    <i name="e_fr_energy">    -22.21889084 </i>
    <i name="e_wo_entrp">    -22.21889084 </i>
    <i name="e_0_energy">    -22.21889084 </i>
   </energy>
  </scstep>
  <scstep>
   <time name="dav">    1.51    1.51</time>
   <time name="total">    4.98    5.00</time>
   <energy>
    <i name="alphaZ">      0.45612485 </i>
    <i name="ewald">    163.23530021 </i>
    <i name="hartreedc">   -418.96936182 </i>
    <i name="XCdc">     33.19505347 </i>
    <i name="pawpsdc">    166.15271914 </i>
    <i name="pawaedc">   -168.84749699 </i>
    <i name="eentropy">      0.00000000 </i>
    <i name="bandstr">   -116.51873768 </i>
    <i name="atom">    319.07750188 </i>
    <i name="e_fr_energy">    -22.21889694 </i>
    <i name="e_wo_entrp">    -22.21889694 </i>
    <i name="e_0_energy">    -22.21889694 </i>
   </energy>
  </scstep>
  <structure>
   <crystal>
    <varray name="basis" >
     <v>      10.00000000       0.00000000       0.00000000 </v>
     <v>       0.00000000      10.00000000       0.00000000 </v>
     <v>       0.00000000       0.00000000      10.00000000 </v>
    </varray>
    <i name="volume">   1000.00000000 </i>
    <varray name="rec_basis" >
     <v>       0.10000000       0.00000000       0.00000000 </v>
     <v>       0.00000000       0.10000000       0.00000000 </v>
     <v>       0.00000000       0.00000000       0.10000000 </v>
    </varray>
   </crystal>
   <varray name="positions" >
    <v>       0.50000000       0.50000000       0.33139940 </v>
    <v>       0.50000000       0.50000000       0.66860060 </v>
    <v>       0.50000000       0.50000000       0.55556672 </v>
    <v>       0.50000000       0.50000000       0.44443328 </v>
   </varray>
  </structure>
  <varray name="forces" >
   <v>       0.00000000       0.00000000       1.93259396 </v>
   <v>       0.00000000       0.00000000      -1.93259396 </v>
   <v>       0.00000000       0.00000000      15.20103608 </v>
   <v>       0.00000000       0.00000000     -15.20103608 </v>
  </varray>
  <varray name="stress" >
   <v>      -1.89618604       0.00000000       0.00000000 </v>
   <v>       0.00000000      -1.89618604       0.00000000 </v>
   <v>       0.00000000       0.00000000      14.72784399 </v>
  </varray>
  <energy>
   <i name="e_fr_energy">    -22.21889694 </i>
   <i name="e_wo_entrp">    -22.21889694 </i>
   <i name="e_0_energy">      0.00000000 </i>
  </energy>
  <time name="totalsc">   38.42   38.80</time>
 </calculation>
 <calculation>
  <scstep>
   <time name="dav">    2.30    2.30</time>
   <time name="total">    7.00    7.00</time>
   <energy>
    <i name="alphaZ">      0.45612485 </i>
    <i name="ewald">    151.68751157 </i>
    <i name="hartreedc">   -411.86716083 </i>
    <i name="XCdc">     32.97392305 </i>
    <i name="pawpsdc">    166.18972263 </i>
    <i name="pawaedc">   -168.88344115 </i>
    <i name="eentropy">      0.00000000 </i>
    <i name="bandstr">   -112.64924121 </i>
    <i name="atom">    319.07750188 </i>
    <i name="e_fr_energy">    -23.01505921 </i>
    <i name="e_wo_entrp">    -23.01505921 </i>
    <i name="e_0_energy">    -23.01505921 </i>
   </energy>
  </scstep>
  <scstep>
   <time name="dav">    2.17    2.17</time>
   <time name="total">    6.28    6.29</time>
   <energy>
    <i name="e_fr_energy">    -22.93803855 </i>
    <i name="e_wo_entrp">    -22.93803855 </i>
    <i name="e_0_energy">    -22.93803855 </i>
   </energy>
  </scstep>
  <scstep>
   <time name="dav">    1.92    1.92</time>
   <time name="total">    6.15    6.16</time>
   <energy>
    <i name="e_fr_energy">    -22.92026552 </i>
    <i name="e_wo_entrp">    -22.92026552 </i>
    <i name="e_0_energy">    -22.92026552 </i>
   </energy>
  </scstep>
  <scstep>
   <time name="dav">    1.78    1.78</time>
   <time name="total">    6.21    6.37</time>
   <energy>
    <i name="e_fr_energy">    -22.92021093 </i>
    <i name="e_wo_entrp">    -22.92021093 </i>
    <i name="e_0_energy">    -22.92021093 </i>
   </energy>
  </scstep>
  <scstep>
   <time name="dav">    1.76    1.76</time>
   <time name="total">    5.92    5.93</time>
   <energy>
    <i name="e_fr_energy">    -22.91975047 </i>
    <i name="e_wo_entrp">    -22.91975047 </i>
    <i name="e_0_energy">    -22.91975047 </i>
   </energy>
  </scstep>
  <scstep>
   <time name="dav">    1.85    1.85</time>
   <time name="total">    5.51    6.38</time>
   <energy>
    <i name="alphaZ">      0.45612485 </i>
    <i name="ewald">    151.68751157 </i>
    <i name="hartreedc">   -407.65030024 </i>
    <i name="XCdc">     32.78096125 </i>
    <i name="pawpsdc">    149.90820336 </i>
    <i name="pawaedc">   -152.51521827 </i>
    <i name="eentropy">      0.00000000 </i>
    <i name="bandstr">   -116.66459501 </i>
    <i name="atom">    319.07750188 </i>
    <i name="e_fr_energy">    -22.91981061 </i>
    <i name="e_wo_entrp">    -22.91981061 </i>
    <i name="e_0_energy">    -22.91981061 </i>
   </energy>
  </scstep>
  <structure>
   <crystal>
    <varray name="basis" >
     <v>      10.00000000       0.00000000       0.00000000 </v>
     <v>       0.00000000      10.00000000       0.00000000 </v>
     <v>       0.00000000       0.00000000      10.00000000 </v>
    </varray>
    <i name="volume">   1000.00000000 </i>
    <varray name="rec_basis" >
     <v>       0.10000000       0.00000000       0.00000000 </v>
     <v>       0.00000000       0.10000000       0.00000000 </v>
     <v>       0.00000000       0.00000000       0.10000000 </v>
    </varray>
   </crystal>
   <varray name="positions" >
    <v>       0.50000000       0.50000000       0.33249870 </v>
    <v>       0.50000000       0.50000000       0.66750130 </v>
    <v>       0.50000000       0.50000000       0.56036180 </v>
    <v>       0.50000000       0.50000000       0.43963820 </v>
   </varray>
  </structure>
  <varray name="forces" >
   <v>       0.00000000       0.00000000      -0.03251454 </v>
   <v>       0.00000000       0.00000000       0.03251454 </v>
   <v>       0.00000000       0.00000000       0.00830122 </v>
   <v>       0.00000000       0.00000000      -0.00830122 </v>
  </varray>
  <varray name="stress" >
   <v>      -1.81341374       0.00000000       0.00000000 </v>
   <v>       0.00000000      -1.81341374       0.00000000 </v>
   <v>       0.00000000       0.00000000      -1.69032778 </v>
  </varray>
  <energy>
   <i name="e_fr_energy">    -22.91981061 </i>
   <i name="e_wo_entrp">    -22.91981061 </i>
   <i name="e_0_energy">      0.00000000 </i>
  </energy>
  <time name="totalsc">   42.98   44.23</time>
  <eigenvalues>
   <array>
    <dimension dim="1">band</dimension>
    <dimension dim="2">kpoint</dimension>
    <dimension dim="3">spin</dimension>
    <field>eigene</field>
    <field>occ</field>
    <set>
     <set comment="spin 1">
      <set comment="kpoint 1">
       <r>  -18.4612    1.0000 </r>
       <r>  -13.8577    1.0000 </r>
       <r>  -11.9739    1.0000 </r>
       <r>   -7.0196    1.0000 </r>
       <r>   -7.0196    1.0000 </r>
       <r>   -0.2828    0.0000 </r>
       <r>   -0.2467    0.0000 </r>
       <r>   -0.2467    0.0000 </r>
       <r>    0.6574    0.0000 </r>
       <r>    0.9159    0.0000 </r>
      </set>
     </set>
     <set comment="spin 2">
      <set comment="kpoint 1">
       <r>  -18.4614    1.0000 </r>
       <r>  -13.8577    1.0000 </r>
       <r>  -11.9740    1.0000 </r>
       <r>   -7.0197    1.0000 </r>
       <r>   -7.0197    1.0000 </r>
       <r>   -0.2791    0.0000 </r>
       <r>   -0.2469    0.0000 </r>
       <r>   -0.2469    0.0000 </r>
       <r>    0.6575    0.0000 </r>
       <r>    0.9220    0.0000 </r>
      </set>
     </set>
    </set>
   </array>
  </eigenvalues>
  <separator name="orbital magnetization" >
   <v name="MAGDIPOLOUT">      0.00000000      0.00000000      0.00000000</v>
  </separator>
  <dos>
   <i name="efermi">     -6.04146084 </i>
   <total>
    <array>
     <dimension dim="1">gridpoints</dimension>
     <dimension dim="2">spin</dimension>
     <field>energy</field>
     <field>total</field>
     <field>integrated</field>
     <set>
      <set comment="spin 1">
       <r>   -20.4614     0.0000     0.0000 </r>
       <r>   -20.3834     0.0000     0.0000 </r>
       <r>   -20.3055     0.0000     0.0000 </r>
       <r>   -20.2275     0.0000     0.0000 </r>
       <r>   -20.1496     0.0000     0.0000 </r>
       <r>   -20.0716     0.0000     0.0000 </r>
       <r>   -19.9937     0.0000     0.0000 </r>
       <r>   -19.9157     0.0000     0.0000 </r>
       <r>   -19.8378     0.0000     0.0000 </r>
       <r>   -19.7599     0.0000     0.0000 </r>
       <r>   -19.6819     0.0000     0.0000 </r>
       <r>   -19.6040     0.0000     0.0000 </r>
       <r>   -19.5260     0.0000     0.0000 </r>
       <r>   -19.4481     0.0000     0.0000 </r>
       <r>   -19.3701     0.0000     0.0000 </r>
       <r>   -19.2922     0.0000     0.0000 </r>
       <r>   -19.2142     0.0000     0.0000 </r>
       <r>   -19.1363     0.0000     0.0000 </r>
       <r>   -19.0584     0.0001     0.0000 </r>
       <r>   -18.9804     0.0014     0.0001 </r>
       <r>   -18.9025     0.0101     0.0009 </r>
       <r>   -18.8245     0.0539     0.0051 </r>
       <r>   -18.7466     0.2144     0.0218 </r>
       <r>   -18.6686     0.6344     0.0713 </r>
       <r>   -18.5907     1.3953     0.1800 </r>
       <r>   -18.5127     2.2818     0.3579 </r>
       <r>   -18.4348     2.7750     0.5742 </r>
       <r>   -18.3569     2.5097     0.7698 </r>
       <r>   -18.2789     1.6879     0.9014 </r>
       <r>   -18.2010     0.8441     0.9671 </r>
       <r>   -18.1230     0.3139     0.9916 </r>
       <r>   -18.0451     0.0867     0.9984 </r>
       <r>   -17.9671     0.0178     0.9998 </r>
       <r>   -17.8892     0.0027     1.0000 </r>
       <r>   -17.8112     0.0003     1.0000 </r>
       <r>   -17.7333     0.0000     1.0000 </r>
       <r>   -17.6554     0.0000     1.0000 </r>
       <r>   -17.5774     0.0000     1.0000 </r>
       <r>   -17.4995     0.0000     1.0000 </r>
       <r>   -17.4215     0.0000     1.0000 </r>
       <r>   -17.3436     0.0000     1.0000 </r>
       <r>   -17.2656     0.0000     1.0000 </r>
       <r>   -17.1877     0.0000     1.0000 </r>
       <r>   -17.1097     0.0000     1.0000 </r>
       <r>   -17.0318     0.0000     1.0000 </r>
       <r>   -16.9539     0.0000     1.0000 </r>
       <r>   -16.8759     0.0000     1.0000 </r>
       <r>   -16.7980     0.0000     1.0000 </r>
       <r>   -16.7200     0.0000     1.0000 </r>
       <r>   -16.6421     0.0000     1.0000 </r>
       <r>   -16.5641     0.0000     1.0000 </r>
       <r>   -16.4862     0.0000     1.0000 </r>
       <r>   -16.4082     0.0000     1.0000 </r>
       <r>   -16.3303     0.0000     1.0000 </r>
       <r>   -16.2524     0.0000     1.0000 </r>
       <r>   -16.1744     0.0000     1.0000 </r>
       <r>   -16.0965     0.0000     1.0000 </r>
       <r>   -16.0185     0.0000     1.0000 </r>
       <r>   -15.9406     0.0000     1.0000 </r>
       <r>   -15.8626     0.0000     1.0000 </r>
       <r>   -15.7847     0.0000     1.0000 </r>
       <r>   -15.7067     0.0000     1.0000 </r>
       <r>   -15.6288     0.0000     1.0000 </r>
       <r>   -15.5509     0.0000     1.0000 </r>
       <r>   -15.4729     0.0000     1.0000 </r>
       <r>   -15.3950     0.0000     1.0000 </r>
       <r>   -15.3170     0.0000     1.0000 </r>
       <r>   -15.2391     0.0000     1.0000 </r>
       <r>   -15.1611     0.0000     1.0000 </r>
       <r>   -15.0832     0.0000     1.0000 </r>
       <r>   -15.0052     0.0000     1.0000 </r>
       <r>   -14.9273     0.0000     1.0000 </r>
       <r>   -14.8494     0.0000     1.0000 </r>
       <r>   -14.7714     0.0000     1.0000 </r>
       <r>   -14.6935     0.0000     1.0000 </r>
       <r>   -14.6155     0.0000     1.0000 </r>
       <r>   -14.5376     0.0000     1.0000 </r>
       <r>   -14.4596     0.0001     1.0000 </r>
       <r>   -14.3817     0.0012     1.0001 </r>
       <r>   -14.3037     0.0090     1.0008 </r>
       <r>   -14.2258     0.0490     1.0046 </r>
       <r>   -14.1478     0.1985     1.0201 </r>
       <r>   -14.0699     0.5982     1.0667 </r>
       <r>   -13.9920     1.3402     1.1712 </r>
       <r>   -13.9140     2.2324     1.3452 </r>
       <r>   -13.8361     2.7653     1.5607 </r>
       <r>   -13.7581     2.5473     1.7593 </r>
       <r>   -13.6802     1.7450     1.8953 </r>
       <r>   -13.6022     0.8889     1.9646 </r>
       <r>   -13.5243     0.3366     1.9908 </r>
       <r>   -13.4463     0.0948     1.9982 </r>
       <r>   -13.3684     0.0198     1.9997 </r>
       <r>   -13.2905     0.0031     2.0000 </r>
       <r>   -13.2125     0.0004     2.0000 </r>
       <r>   -13.1346     0.0000     2.0000 </r>
       <r>   -13.0566     0.0000     2.0000 </r>
       <r>   -12.9787     0.0000     2.0000 </r>
       <r>   -12.9007     0.0000     2.0000 </r>
       <r>   -12.8228     0.0000     2.0000 </r>
       <r>   -12.7448     0.0000     2.0000 </r>
       <r>   -12.6669     0.0000     2.0000 </r>
       <r>   -12.5890     0.0001     2.0000 </r>
       <r>   -12.5110     0.0008     2.0001 </r>
       <r>   -12.4331     0.0065     2.0006 </r>
       <r>   -12.3551     0.0376     2.0035 </r>
       <r>   -12.2772     0.1601     2.0160 </r>
       <r>   -12.1992     0.5072     2.0555 </r>
       <r>   -12.1213     1.1945     2.1486 </r>
       <r>   -12.0433     2.0915     2.3116 </r>
       <r>   -11.9654     2.7232     2.5239 </r>
       <r>   -11.8875     2.6369     2.7294 </r>
       <r>   -11.8095     1.8988     2.8774 </r>
       <r>   -11.7316     1.0167     2.9567 </r>
       <r>   -11.6536     0.4048     2.9882 </r>
       <r>   -11.5757     0.1198     2.9976 </r>
       <r>   -11.4977     0.0263     2.9996 </r>
       <r>   -11.4198     0.0043     3.0000 </r>
       <r>   -11.3418     0.0005     3.0000 </r>
       <r>   -11.2639     0.0000     3.0000 </r>
       <r>   -11.1860     0.0000     3.0000 </r>
       <r>   -11.1080     0.0000     3.0000 </r>
       <r>   -11.0301     0.0000     3.0000 </r>
       <r>   -10.9521     0.0000     3.0000 </r>
       <r>   -10.8742     0.0000     3.0000 </r>
       <r>   -10.7962     0.0000     3.0000 </r>
       <r>   -10.7183     0.0000     3.0000 </r>
       <r>   -10.6403     0.0000     3.0000 </r>
       <r>   -10.5624     0.0000     3.0000 </r>
       <r>   -10.4845     0.0000     3.0000 </r>
       <r>   -10.4065     0.0000     3.0000 </r>
       <r>   -10.3286     0.0000     3.0000 </r>
       <r>   -10.2506     0.0000     3.0000 </r>
       <r>   -10.1727     0.0000     3.0000 </r>
       <r>   -10.0947     0.0000     3.0000 </r>
       <r>   -10.0168     0.0000     3.0000 </r>
       <r>    -9.9388     0.0000     3.0000 </r>
       <r>    -9.8609     0.0000     3.0000 </r>
       <r>    -9.7830     0.0000     3.0000 </r>
       <r>    -9.7050     0.0000     3.0000 </r>
       <r>    -9.6271     0.0000     3.0000 </r>
       <r>    -9.5491     0.0000     3.0000 </r>
       <r>    -9.4712     0.0000     3.0000 </r>
       <r>    -9.3932     0.0000     3.0000 </r>
       <r>    -9.3153     0.0000     3.0000 </r>
       <r>    -9.2373     0.0000     3.0000 </r>
       <r>    -9.1594     0.0000     3.0000 </r>
       <r>    -9.0815     0.0000     3.0000 </r>
       <r>    -9.0035     0.0000     3.0000 </r>
       <r>    -8.9256     0.0000     3.0000 </r>
       <r>    -8.8476     0.0000     3.0000 </r>
       <r>    -8.7697     0.0000     3.0000 </r>
       <r>    -8.6917     0.0000     3.0000 </r>
       <r>    -8.6138     0.0000     3.0000 </r>
       <r>    -8.5358     0.0000     3.0000 </r>
       <r>    -8.4579     0.0000     3.0000 </r>
       <r>    -8.3800     0.0000     3.0000 </r>
       <r>    -8.3020     0.0000     3.0000 </r>
       <r>    -8.2241     0.0000     3.0000 </r>
       <r>    -8.1461     0.0000     3.0000 </r>
       <r>    -8.0682     0.0000     3.0000 </r>
       <r>    -7.9902     0.0000     3.0000 </r>
       <r>    -7.9123     0.0000     3.0000 </r>
       <r>    -7.8343     0.0000     3.0000 </r>
       <r>    -7.7564     0.0000     3.0000 </r>
       <r>    -7.6784     0.0000     3.0000 </r>
       <r>    -7.6005     0.0005     3.0000 </r>
       <r>    -7.5226     0.0043     3.0004 </r>
       <r>    -7.4446     0.0292     3.0027 </r>
       <r>    -7.3667     0.1472     3.0141 </r>
       <r>    -7.2887     0.5508     3.0571 </r>
       <r>    -7.2108     1.5319     3.1765 </r>
       <r>    -7.1328     3.1678     3.4234 </r>
       <r>    -7.0549     4.8708     3.8030 </r>
       <r>    -6.9769     5.5694     4.2371 </r>
       <r>    -6.8990     4.7359     4.6063 </r>
       <r>    -6.8211     2.9947     4.8397 </r>
       <r>    -6.7431     1.4081     4.9494 </r>
       <r>    -6.6652     0.4922     4.9878 </r>
       <r>    -6.5872     0.1279     4.9978 </r>
       <r>    -6.5093     0.0247     4.9997 </r>
       <r>    -6.4313     0.0035     5.0000 </r>
       <r>    -6.3534     0.0004     5.0000 </r>
       <r>    -6.2754     0.0000     5.0000 </r>
       <r>    -6.1975     0.0000     5.0000 </r>
       <r>    -6.1196     0.0000     5.0000 </r>
       <r>    -6.0416     0.0000     5.0000 </r>
       <r>    -5.9637     0.0000     5.0000 </r>
       <r>    -5.8857     0.0000     5.0000 </r>
       <r>    -5.8078     0.0000     5.0000 </r>
       <r>    -5.7298     0.0000     5.0000 </r>
       <r>    -5.6519     0.0000     5.0000 </r>
       <r>    -5.5739     0.0000     5.0000 </r>
       <r>    -5.4960     0.0000     5.0000 </r>
       <r>    -5.4181     0.0000     5.0000 </r>
       <r>    -5.3401     0.0000     5.0000 </r>
       <r>    -5.2622     0.0000     5.0000 </r>
       <r>    -5.1842     0.0000     5.0000 </r>
       <r>    -5.1063     0.0000     5.0000 </r>
       <r>    -5.0283     0.0000     5.0000 </r>
       <r>    -4.9504     0.0000     5.0000 </r>
       <r>    -4.8724     0.0000     5.0000 </r>
       <r>    -4.7945     0.0000     5.0000 </r>
       <r>    -4.7166     0.0000     5.0000 </r>
       <r>    -4.6386     0.0000     5.0000 </r>
       <r>    -4.5607     0.0000     5.0000 </r>
       <r>    -4.4827     0.0000     5.0000 </r>
       <r>    -4.4048     0.0000     5.0000 </r>
       <r>    -4.3268     0.0000     5.0000 </r>
       <r>    -4.2489     0.0000     5.0000 </r>
       <r>    -4.1709     0.0000     5.0000 </r>
       <r>    -4.0930     0.0000     5.0000 </r>
       <r>    -4.0151     0.0000     5.0000 </r>
       <r>    -3.9371     0.0000     5.0000 </r>
       <r>    -3.8592     0.0000     5.0000 </r>
       <r>    -3.7812     0.0000     5.0000 </r>
       <r>    -3.7033     0.0000     5.0000 </r>
       <r>    -3.6253     0.0000     5.0000 </r>
       <r>    -3.5474     0.0000     5.0000 </r>
       <r>    -3.4694     0.0000     5.0000 </r>
       <r>    -3.3915     0.0000     5.0000 </r>
       <r>    -3.3136     0.0000     5.0000 </r>
       <r>    -3.2356     0.0000     5.0000 </r>
       <r>    -3.1577     0.0000     5.0000 </r>
       <r>    -3.0797     0.0000     5.0000 </r>
       <r>    -3.0018     0.0000     5.0000 </r>
       <r>    -2.9238     0.0000     5.0000 </r>
       <r>    -2.8459     0.0000     5.0000 </r>
       <r>    -2.7679     0.0000     5.0000 </r>
       <r>    -2.6900     0.0000     5.0000 </r>
       <r>    -2.6121     0.0000     5.0000 </r>
       <r>    -2.5341     0.0000     5.0000 </r>
       <r>    -2.4562     0.0000     5.0000 </r>
       <r>    -2.3782     0.0000     5.0000 </r>
       <r>    -2.3003     0.0000     5.0000 </r>
       <r>    -2.2223     0.0000     5.0000 </r>
       <r>    -2.1444     0.0000     5.0000 </r>
       <r>    -2.0664     0.0000     5.0000 </r>
       <r>    -1.9885     0.0000     5.0000 </r>
       <r>    -1.9106     0.0000     5.0000 </r>
       <r>    -1.8326     0.0000     5.0000 </r>
       <r>    -1.7547     0.0000     5.0000 </r>
       <r>    -1.6767     0.0000     5.0000 </r>
       <r>    -1.5988     0.0000     5.0000 </r>
       <r>    -1.5208     0.0000     5.0000 </r>
       <r>    -1.4429     0.0000     5.0000 </r>
       <r>    -1.3649     0.0000     5.0000 </r>
       <r>    -1.2870     0.0000     5.0000 </r>
       <r>    -1.2090     0.0000     5.0000 </r>
       <r>    -1.1311     0.0000     5.0000 </r>
       <r>    -1.0532     0.0000     5.0000 </r>
       <r>    -0.9752     0.0000     5.0000 </r>
       <r>    -0.8973     0.0001     5.0000 </r>
       <r>    -0.8193     0.0015     5.0001 </r>
       <r>    -0.7414     0.0120     5.0011 </r>
       <r>    -0.6634     0.0732     5.0068 </r>
       <r>    -0.5855     0.3335     5.0328 </r>
       <r>    -0.5075     1.1340     5.1212 </r>
       <r>    -0.4296     2.8795     5.3456 </r>
       <r>    -0.3517     5.4612     5.7713 </r>
       <r>    -0.2737     7.7363     6.3743 </r>
       <r>    -0.1958     8.1849     7.0122 </r>
       <r>    -0.1178     6.4662     7.5162 </r>
       <r>    -0.0399     3.8136     7.8135 </r>
       <r>     0.0381     1.6786     7.9443 </r>
       <r>     0.1160     0.5518     7.9873 </r>
       <r>     0.1940     0.1408     7.9983 </r>
       <r>     0.2719     0.0591     8.0029 </r>
       <r>     0.3498     0.1529     8.0148 </r>
       <r>     0.4278     0.4837     8.0525 </r>
       <r>     0.5057     1.1694     8.1437 </r>
       <r>     0.5837     2.1413     8.3106 </r>
       <r>     0.6616     3.0474     8.5481 </r>
       <r>     0.7396     3.5616     8.8257 </r>
       <r>     0.8175     3.7065     9.1146 </r>
       <r>     0.8955     3.6158     9.3965 </r>
       <r>     0.9734     3.1910     9.6452 </r>
       <r>     1.0513     2.3489     9.8283 </r>
       <r>     1.1293     1.3556     9.9339 </r>
       <r>     1.2072     0.5943     9.9803 </r>
       <r>     1.2852     0.1953     9.9955 </r>
       <r>     1.3631     0.0479     9.9992 </r>
       <r>     1.4411     0.0087     9.9999 </r>
       <r>     1.5190     0.0012    10.0000 </r>
       <r>     1.5970     0.0001    10.0000 </r>
       <r>     1.6749     0.0000    10.0000 </r>
       <r>     1.7528     0.0000    10.0000 </r>
       <r>     1.8308     0.0000    10.0000 </r>
       <r>     1.9087     0.0000    10.0000 </r>
       <r>     1.9867     0.0000    10.0000 </r>
       <r>     2.0646     0.0000    10.0000 </r>
       <r>     2.1426     0.0000    10.0000 </r>
       <r>     2.2205     0.0000    10.0000 </r>
       <r>     2.2985     0.0000    10.0000 </r>
       <r>     2.3764     0.0000    10.0000 </r>
       <r>     2.4543     0.0000    10.0000 </r>
       <r>     2.5323     0.0000    10.0000 </r>
       <r>     2.6102     0.0000    10.0000 </r>
       <r>     2.6882     0.0000    10.0000 </r>
       <r>     2.7661     0.0000    10.0000 </r>
       <r>     2.8441     0.0000    10.0000 </r>
       <r>     2.9220     0.0000    10.0000 </r>
      </set>
      <set comment="spin 2">
       <r>   -20.4614     0.0000     0.0000 </r>
       <r>   -20.3834     0.0000     0.0000 </r>
       <r>   -20.3055     0.0000     0.0000 </r>
       <r>   -20.2275     0.0000     0.0000 </r>
       <r>   -20.1496     0.0000     0.0000 </r>
       <r>   -20.0716     0.0000     0.0000 </r>
       <r>   -19.9937     0.0000     0.0000 </r>
       <r>   -19.9157     0.0000     0.0000 </r>
       <r>   -19.8378     0.0000     0.0000 </r>
       <r>   -19.7599     0.0000     0.0000 </r>
       <r>   -19.6819     0.0000     0.0000 </r>
       <r>   -19.6040     0.0000     0.0000 </r>
       <r>   -19.5260     0.0000     0.0000 </r>
       <r>   -19.4481     0.0000     0.0000 </r>
       <r>   -19.3701     0.0000     0.0000 </r>
       <r>   -19.2922     0.0000     0.0000 </r>
       <r>   -19.2142     0.0000     0.0000 </r>
       <r>   -19.1363     0.0000     0.0000 </r>
       <r>   -19.0584     0.0001     0.0000 </r>
       <r>   -18.9804     0.0014     0.0001 </r>
       <r>   -18.9025     0.0101     0.0009 </r>
       <r>   -18.8245     0.0540     0.0051 </r>
       <r>   -18.7466     0.2148     0.0219 </r>
       <r>   -18.6686     0.6352     0.0714 </r>
       <r>   -18.5907     1.3966     0.1802 </r>
       <r>   -18.5127     2.2830     0.3582 </r>
       <r>   -18.4348     2.7752     0.5745 </r>
       <r>   -18.3569     2.5088     0.7700 </r>
       <r>   -18.2789     1.6866     0.9015 </r>
       <r>   -18.2010     0.8431     0.9672 </r>
       <r>   -18.1230     0.3133     0.9916 </r>
       <r>   -18.0451     0.0866     0.9984 </r>
       <r>   -17.9671     0.0178     0.9998 </r>
       <r>   -17.8892     0.0027     1.0000 </r>
       <r>   -17.8112     0.0003     1.0000 </r>
       <r>   -17.7333     0.0000     1.0000 </r>
       <r>   -17.6554     0.0000     1.0000 </r>
       <r>   -17.5774     0.0000     1.0000 </r>
       <r>   -17.4995     0.0000     1.0000 </r>
       <r>   -17.4215     0.0000     1.0000 </r>
       <r>   -17.3436     0.0000     1.0000 </r>
       <r>   -17.2656     0.0000     1.0000 </r>
       <r>   -17.1877     0.0000     1.0000 </r>
       <r>   -17.1097     0.0000     1.0000 </r>
       <r>   -17.0318     0.0000     1.0000 </r>
       <r>   -16.9539     0.0000     1.0000 </r>
       <r>   -16.8759     0.0000     1.0000 </r>
       <r>   -16.7980     0.0000     1.0000 </r>
       <r>   -16.7200     0.0000     1.0000 </r>
       <r>   -16.6421     0.0000     1.0000 </r>
       <r>   -16.5641     0.0000     1.0000 </r>
       <r>   -16.4862     0.0000     1.0000 </r>
       <r>   -16.4082     0.0000     1.0000 </r>
       <r>   -16.3303     0.0000     1.0000 </r>
       <r>   -16.2524     0.0000     1.0000 </r>
       <r>   -16.1744     0.0000     1.0000 </r>
       <r>   -16.0965     0.0000     1.0000 </r>
       <r>   -16.0185     0.0000     1.0000 </r>
       <r>   -15.9406     0.0000     1.0000 </r>
       <r>   -15.8626     0.0000     1.0000 </r>
       <r>   -15.7847     0.0000     1.0000 </r>
       <r>   -15.7067     0.0000     1.0000 </r>
       <r>   -15.6288     0.0000     1.0000 </r>
       <r>   -15.5509     0.0000     1.0000 </r>
       <r>   -15.4729     0.0000     1.0000 </r>
       <r>   -15.3950     0.0000     1.0000 </r>
       <r>   -15.3170     0.0000     1.0000 </r>
       <r>   -15.2391     0.0000     1.0000 </r>
       <r>   -15.1611     0.0000     1.0000 </r>
       <r>   -15.0832     0.0000     1.0000 </r>
       <r>   -15.0052     0.0000     1.0000 </r>
       <r>   -14.9273     0.0000     1.0000 </r>
       <r>   -14.8494     0.0000     1.0000 </r>
       <r>   -14.7714     0.0000     1.0000 </r>
       <r>   -14.6935     0.0000     1.0000 </r>
       <r>   -14.6155     0.0000     1.0000 </r>
       <r>   -14.5376     0.0000     1.0000 </r>
       <r>   -14.4596     0.0001     1.0000 </r>
       <r>   -14.3817     0.0012     1.0001 </r>
       <r>   -14.3037     0.0090     1.0008 </r>
       <r>   -14.2258     0.0490     1.0046 </r>
       <r>   -14.1478     0.1986     1.0201 </r>
       <r>   -14.0699     0.5985     1.0668 </r>
       <r>   -13.9920     1.3406     1.1713 </r>
       <r>   -13.9140     2.2328     1.3453 </r>
       <r>   -13.8361     2.7653     1.5608 </r>
       <r>   -13.7581     2.5470     1.7594 </r>
       <r>   -13.6802     1.7445     1.8953 </r>
       <r>   -13.6022     0.8885     1.9646 </r>
       <r>   -13.5243     0.3364     1.9908 </r>
       <r>   -13.4463     0.0947     1.9982 </r>
       <r>   -13.3684     0.0198     1.9997 </r>
       <r>   -13.2905     0.0031     2.0000 </r>
       <r>   -13.2125     0.0004     2.0000 </r>
       <r>   -13.1346     0.0000     2.0000 </r>
       <r>   -13.0566     0.0000     2.0000 </r>
       <r>   -12.9787     0.0000     2.0000 </r>
       <r>   -12.9007     0.0000     2.0000 </r>
       <r>   -12.8228     0.0000     2.0000 </r>
       <r>   -12.7448     0.0000     2.0000 </r>
       <r>   -12.6669     0.0000     2.0000 </r>
       <r>   -12.5890     0.0001     2.0000 </r>
       <r>   -12.5110     0.0009     2.0001 </r>
       <r>   -12.4331     0.0066     2.0006 </r>
       <r>   -12.3551     0.0376     2.0035 </r>
       <r>   -12.2772     0.1604     2.0160 </r>
       <r>   -12.1992     0.5079     2.0556 </r>
       <r>   -12.1213     1.1957     2.1488 </r>
       <r>   -12.0433     2.0927     2.3119 </r>
       <r>   -11.9654     2.7237     2.5242 </r>
       <r>   -11.8875     2.6362     2.7297 </r>
       <r>   -11.8095     1.8975     2.8776 </r>
       <r>   -11.7316     1.0156     2.9568 </r>
       <r>   -11.6536     0.4041     2.9883 </r>
       <r>   -11.5757     0.1195     2.9976 </r>
       <r>   -11.4977     0.0263     2.9996 </r>
       <r>   -11.4198     0.0043     3.0000 </r>
       <r>   -11.3418     0.0005     3.0000 </r>
       <r>   -11.2639     0.0000     3.0000 </r>
       <r>   -11.1860     0.0000     3.0000 </r>
       <r>   -11.1080     0.0000     3.0000 </r>
       <r>   -11.0301     0.0000     3.0000 </r>
       <r>   -10.9521     0.0000     3.0000 </r>
       <r>   -10.8742     0.0000     3.0000 </r>
       <r>   -10.7962     0.0000     3.0000 </r>
       <r>   -10.7183     0.0000     3.0000 </r>
       <r>   -10.6403     0.0000     3.0000 </r>
       <r>   -10.5624     0.0000     3.0000 </r>
       <r>   -10.4845     0.0000     3.0000 </r>
       <r>   -10.4065     0.0000     3.0000 </r>
       <r>   -10.3286     0.0000     3.0000 </r>
       <r>   -10.2506     0.0000     3.0000 </r>
       <r>   -10.1727     0.0000     3.0000 </r>
       <r>   -10.0947     0.0000     3.0000 </r>
       <r>   -10.0168     0.0000     3.0000 </r>
       <r>    -9.9388     0.0000     3.0000 </r>
       <r>    -9.8609     0.0000     3.0000 </r>
       <r>    -9.7830     0.0000     3.0000 </r>
       <r>    -9.7050     0.0000     3.0000 </r>
       <r>    -9.6271     0.0000     3.0000 </r>
       <r>    -9.5491     0.0000     3.0000 </r>
       <r>    -9.4712     0.0000     3.0000 </r>
       <r>    -9.3932     0.0000     3.0000 </r>
       <r>    -9.3153     0.0000     3.0000 </r>
       <r>    -9.2373     0.0000     3.0000 </r>
       <r>    -9.1594     0.0000     3.0000 </r>
       <r>    -9.0815     0.0000     3.0000 </r>
       <r>    -9.0035     0.0000     3.0000 </r>
       <r>    -8.9256     0.0000     3.0000 </r>
       <r>    -8.8476     0.0000     3.0000 </r>
       <r>    -8.7697     0.0000     3.0000 </r>
       <r>    -8.6917     0.0000     3.0000 </r>
       <r>    -8.6138     0.0000     3.0000 </r>
       <r>    -8.5358     0.0000     3.0000 </r>
       <r>    -8.4579     0.0000     3.0000 </r>
       <r>    -8.3800     0.0000     3.0000 </r>
       <r>    -8.3020     0.0000     3.0000 </r>
       <r>    -8.2241     0.0000     3.0000 </r>
       <r>    -8.1461     0.0000     3.0000 </r>
       <r>    -8.0682     0.0000     3.0000 </r>
       <r>    -7.9902     0.0000     3.0000 </r>
       <r>    -7.9123     0.0000     3.0000 </r>
       <r>    -7.8343     0.0000     3.0000 </r>
       <r>    -7.7564     0.0000     3.0000 </r>
       <r>    -7.6784     0.0000     3.0000 </r>
       <r>    -7.6005     0.0005     3.0000 </r>
       <r>    -7.5226     0.0043     3.0004 </r>
       <r>    -7.4446     0.0293     3.0027 </r>
       <r>    -7.3667     0.1475     3.0142 </r>
       <r>    -7.2887     0.5518     3.0572 </r>
       <r>    -7.2108     1.5341     3.1767 </r>
       <r>    -7.1328     3.1707     3.4239 </r>
       <r>    -7.0549     4.8730     3.8037 </r>
       <r>    -6.9769     5.5693     4.2378 </r>
       <r>    -6.8990     4.7335     4.6068 </r>
       <r>    -6.8211     2.9918     4.8399 </r>
       <r>    -6.7431     1.4060     4.9495 </r>
       <r>    -6.6652     0.4912     4.9878 </r>
       <r>    -6.5872     0.1276     4.9978 </r>
       <r>    -6.5093     0.0246     4.9997 </r>
       <r>    -6.4313     0.0035     5.0000 </r>
       <r>    -6.3534     0.0004     5.0000 </r>
       <r>    -6.2754     0.0000     5.0000 </r>
       <r>    -6.1975     0.0000     5.0000 </r>
       <r>    -6.1196     0.0000     5.0000 </r>
       <r>    -6.0416     0.0000     5.0000 </r>
       <r>    -5.9637     0.0000     5.0000 </r>
       <r>    -5.8857     0.0000     5.0000 </r>
       <r>    -5.8078     0.0000     5.0000 </r>
       <r>    -5.7298     0.0000     5.0000 </r>
       <r>    -5.6519     0.0000     5.0000 </r>
       <r>    -5.5739     0.0000     5.0000 </r>
       <r>    -5.4960     0.0000     5.0000 </r>
       <r>    -5.4181     0.0000     5.0000 </r>
       <r>    -5.3401     0.0000     5.0000 </r>
       <r>    -5.2622     0.0000     5.0000 </r>
       <r>    -5.1842     0.0000     5.0000 </r>
       <r>    -5.1063     0.0000     5.0000 </r>
       <r>    -5.0283     0.0000     5.0000 </r>
       <r>    -4.9504     0.0000     5.0000 </r>
       <r>    -4.8724     0.0000     5.0000 </r>
       <r>    -4.7945     0.0000     5.0000 </r>
       <r>    -4.7166     0.0000     5.0000 </r>
       <r>    -4.6386     0.0000     5.0000 </r>
       <r>    -4.5607     0.0000     5.0000 </r>
       <r>    -4.4827     0.0000     5.0000 </r>
       <r>    -4.4048     0.0000     5.0000 </r>
       <r>    -4.3268     0.0000     5.0000 </r>
       <r>    -4.2489     0.0000     5.0000 </r>
       <r>    -4.1709     0.0000     5.0000 </r>
       <r>    -4.0930     0.0000     5.0000 </r>
       <r>    -4.0151     0.0000     5.0000 </r>
       <r>    -3.9371     0.0000     5.0000 </r>
       <r>    -3.8592     0.0000     5.0000 </r>
       <r>    -3.7812     0.0000     5.0000 </r>
       <r>    -3.7033     0.0000     5.0000 </r>
       <r>    -3.6253     0.0000     5.0000 </r>
       <r>    -3.5474     0.0000     5.0000 </r>
       <r>    -3.4694     0.0000     5.0000 </r>
       <r>    -3.3915     0.0000     5.0000 </r>
       <r>    -3.3136     0.0000     5.0000 </r>
       <r>    -3.2356     0.0000     5.0000 </r>
       <r>    -3.1577     0.0000     5.0000 </r>
       <r>    -3.0797     0.0000     5.0000 </r>
       <r>    -3.0018     0.0000     5.0000 </r>
       <r>    -2.9238     0.0000     5.0000 </r>
       <r>    -2.8459     0.0000     5.0000 </r>
       <r>    -2.7679     0.0000     5.0000 </r>
       <r>    -2.6900     0.0000     5.0000 </r>
       <r>    -2.6121     0.0000     5.0000 </r>
       <r>    -2.5341     0.0000     5.0000 </r>
       <r>    -2.4562     0.0000     5.0000 </r>
       <r>    -2.3782     0.0000     5.0000 </r>
       <r>    -2.3003     0.0000     5.0000 </r>
       <r>    -2.2223     0.0000     5.0000 </r>
       <r>    -2.1444     0.0000     5.0000 </r>
       <r>    -2.0664     0.0000     5.0000 </r>
       <r>    -1.9885     0.0000     5.0000 </r>
       <r>    -1.9106     0.0000     5.0000 </r>
       <r>    -1.8326     0.0000     5.0000 </r>
       <r>    -1.7547     0.0000     5.0000 </r>
       <r>    -1.6767     0.0000     5.0000 </r>
       <r>    -1.5988     0.0000     5.0000 </r>
       <r>    -1.5208     0.0000     5.0000 </r>
       <r>    -1.4429     0.0000     5.0000 </r>
       <r>    -1.3649     0.0000     5.0000 </r>
       <r>    -1.2870     0.0000     5.0000 </r>
       <r>    -1.2090     0.0000     5.0000 </r>
       <r>    -1.1311     0.0000     5.0000 </r>
       <r>    -1.0532     0.0000     5.0000 </r>
       <r>    -0.9752     0.0000     5.0000 </r>
       <r>    -0.8973     0.0001     5.0000 </r>
       <r>    -0.8193     0.0014     5.0001 </r>
       <r>    -0.7414     0.0115     5.0010 </r>
       <r>    -0.6634     0.0706     5.0065 </r>
       <r>    -0.5855     0.3243     5.0318 </r>
       <r>    -0.5075     1.1115     5.1184 </r>
       <r>    -0.4296     2.8425     5.3400 </r>
       <r>    -0.3517     5.4241     5.7628 </r>
       <r>    -0.2737     7.7235     6.3648 </r>
       <r>    -0.1958     8.2065     7.0044 </r>
       <r>    -0.1178     6.5058     7.5115 </r>
       <r>    -0.0399     3.8473     7.8114 </r>
       <r>     0.0381     1.6967     7.9436 </r>
       <r>     0.1160     0.5586     7.9872 </r>
       <r>     0.1940     0.1425     7.9983 </r>
       <r>     0.2719     0.0593     8.0029 </r>
       <r>     0.3498     0.1525     8.0148 </r>
       <r>     0.4278     0.4823     8.0524 </r>
       <r>     0.5057     1.1652     8.1432 </r>
       <r>     0.5837     2.1293     8.3092 </r>
       <r>     0.6616     3.0177     8.5444 </r>
       <r>     0.7396     3.5055     8.8176 </r>
       <r>     0.8175     3.6359     9.1010 </r>
       <r>     0.8955     3.5700     9.3793 </r>
       <r>     0.9734     3.2048     9.6291 </r>
       <r>     1.0513     2.4122     9.8171 </r>
       <r>     1.1293     1.4255     9.9282 </r>
       <r>     1.2072     0.6400     9.9781 </r>
       <r>     1.2852     0.2154     9.9949 </r>
       <r>     1.3631     0.0540     9.9991 </r>
       <r>     1.4411     0.0101     9.9999 </r>
       <r>     1.5190     0.0014    10.0000 </r>
       <r>     1.5970     0.0001    10.0000 </r>
       <r>     1.6749     0.0000    10.0000 </r>
       <r>     1.7528     0.0000    10.0000 </r>
       <r>     1.8308     0.0000    10.0000 </r>
       <r>     1.9087     0.0000    10.0000 </r>
       <r>     1.9867     0.0000    10.0000 </r>
       <r>     2.0646     0.0000    10.0000 </r>
       <r>     2.1426     0.0000    10.0000 </r>
       <r>     2.2205     0.0000    10.0000 </r>
       <r>     2.2985     0.0000    10.0000 </r>
       <r>     2.3764     0.0000    10.0000 </r>
       <r>     2.4543     0.0000    10.0000 </r>
       <r>     2.5323     0.0000    10.0000 </r>
       <r>     2.6102     0.0000    10.0000 </r>
       <r>     2.6882     0.0000    10.0000 </r>
       <r>     2.7661     0.0000    10.0000 </r>
       <r>     2.8441     0.0000    10.0000 </r>
       <r>     2.9220     0.0000    10.0000 </r>
      </set>
     </set>
    </array>
   </total>
  </dos>
 </calculation>
 <structure name="finalpos" >
  <crystal>
   <varray name="basis" >
    <v>      10.00000000       0.00000000       0.00000000 </v>
    <v>       0.00000000      10.00000000       0.00000000 </v>
    <v>       0.00000000       0.00000000      10.00000000 </v>
   </varray>
   <i name="volume">   1000.00000000 </i>
   <varray name="rec_basis" >
    <v>       0.10000000       0.00000000       0.00000000 </v>
    <v>       0.00000000       0.10000000       0.00000000 </v>
    <v>       0.00000000       0.00000000       0.10000000 </v>
   </varray>
  </crystal>
  <varray name="positions" >
   <v>       0.50000000       0.50000000       0.33249870 </v>
   <v>       0.50000000       0.50000000       0.66750130 </v>
   <v>       0.50000000       0.50000000       0.56036180 </v>
   <v>       0.50000000       0.50000000       0.43963820 </v>
  </varray>
 </structure>
</modeling>
