 running on    1 nodes
 distr:  one band on    1 nodes,    1 groups
 vasp.5.2.12 11Nov11 complex                                                    
  
 POSCAR found :  2 types and      12 ions
 LDA part: xc-table for Pade appr. of Perdew
 POSCAR, INCAR and KPOINTS ok, starting setup
 WARNING: small aliasing (wrap around) errors must be expected
 FFT: planning ...(           2 )
 WAVECAR not read
 entering main loop
       N       E                     dE             d eps       ncg     rms          rms(c)
DAV:   1     0.136857967820E+03    0.13686E+03   -0.86677E+03   124   0.669E+02
DAV:   2    -0.317621909951E+02   -0.16862E+03   -0.16204E+03   128   0.159E+02
DAV:   3    -0.690468000706E+02   -0.37285E+02   -0.37190E+02   112   0.791E+01
DAV:   4    -0.711057039008E+02   -0.20589E+01   -0.20552E+01    84   0.210E+01
DAV:   5    -0.711415697500E+02   -0.35866E-01   -0.35859E-01   120   0.290E+00    0.219E+01
DAV:   6    -0.415752216308E+02    0.29566E+02   -0.70987E+01    94   0.429E+01    0.953E+00
DAV:   7    -0.671962651751E+02   -0.25621E+02   -0.31867E+01    97   0.242E+01    0.428E+00
DAV:   8    -0.720614939918E+02   -0.48652E+01   -0.21046E+00    97   0.764E+00    0.233E+00
DAV:   9    -0.756222025155E+02   -0.35607E+01   -0.24175E+00   110   0.601E+00    0.856E-01
DAV:  10    -0.759633210490E+02   -0.34112E+00   -0.39074E-01    97   0.237E+00    0.310E-01
DAV:  11    -0.759714958278E+02   -0.81748E-02   -0.13884E-02   105   0.749E-01    0.204E-01
DAV:  12    -0.759710834168E+02    0.41241E-03   -0.64539E-03    92   0.523E-01    0.105E-01
DAV:  13    -0.759714350717E+02   -0.35165E-03   -0.37419E-03   100   0.291E-01    0.860E-02
DAV:  14    -0.759856725969E+02   -0.14238E-01   -0.42542E-03   110   0.263E-01    0.527E-02
DAV:  15    -0.759891156290E+02   -0.34430E-02   -0.40741E-04   110   0.124E-01    0.268E-02
DAV:  16    -0.759931954717E+02   -0.40798E-02   -0.41783E-04    94   0.932E-02    0.179E-02
DAV:  17    -0.759961382693E+02   -0.29428E-02   -0.45034E-04   102   0.900E-02    0.132E-02
DAV:  18    -0.759970671354E+02   -0.92887E-03   -0.65780E-05    99   0.470E-02    0.663E-03
DAV:  19    -0.759974082055E+02   -0.34107E-03   -0.49899E-05   102   0.363E-02    0.432E-03
DAV:  20    -0.759975041108E+02   -0.95905E-04   -0.53790E-06    91   0.158E-02
   1 F= -.75997504E+02 E0= -.75997504E+02  d E =-.759975E+02  mag=    -0.0002
 curvature:   0.00 expect dE= 0.000E+00 dE for cont linesearch  0.000E+00
 trial: gam= 0.00000 g(F)=  0.188E-01 g(S)=  0.000E+00 ort = 0.000E+00 (trialstep = 0.100E+01)
 search vector abs. value=  0.188E-01
 bond charge predicted
       N       E                     dE             d eps       ncg     rms          rms(c)
DAV:   1    -0.759881789728E+02    0.92292E-02   -0.84518E-01    84   0.626E+00    0.294E-01
DAV:   2    -0.759890004737E+02   -0.82150E-03   -0.23546E-02    99   0.928E-01    0.216E-01
DAV:   3    -0.759882057791E+02    0.79469E-03   -0.38574E-03    94   0.418E-01    0.376E-02
DAV:   4    -0.759881877740E+02    0.18005E-04   -0.63789E-04    94   0.164E-01
   2 F= -.75988188E+02 E0= -.75988188E+02  d E =0.931634E-02  mag=     0.0000
 trial-energy change:    0.009316  1 .order    0.009064   -0.018792    0.036920
 step:   0.3373(harm=  0.3373)  dis= 0.00391  next Energy=   -76.000673 (dE=-0.317E-02)
 bond charge predicted
       N       E                     dE             d eps       ncg     rms          rms(c)
DAV:   1    -0.760006219858E+02   -0.12416E-01   -0.36837E-01    94   0.411E+00    0.196E-01
DAV:   2    -0.760009628467E+02   -0.34086E-03   -0.99634E-03    84   0.609E-01    0.144E-01
DAV:   3    -0.760006912003E+02    0.27165E-03   -0.17893E-03   100   0.285E-01    0.278E-02
DAV:   4    -0.760006603990E+02    0.30801E-04   -0.29013E-04    78   0.121E-01
   3 F= -.76000660E+02 E0= -.76000660E+02  d E =-.315629E-02  mag=     0.0000
 curvature:  -0.17 expect dE=-0.126E-02 dE for cont linesearch -0.179E-06
 trial: gam= 0.40443 g(F)=  0.746E-02 g(S)=  0.000E+00 ort =-0.141E-03 (trialstep = 0.867E+00)
 search vector abs. value=  0.104E-01
 bond charge predicted
       N       E                     dE             d eps       ncg     rms          rms(c)
DAV:   1    -0.760043272358E+02   -0.36360E-02   -0.41454E-01    84   0.440E+00    0.179E-01
DAV:   2    -0.760038934551E+02    0.43378E-03   -0.53426E-03    84   0.527E-01    0.111E-01
DAV:   3    -0.760037475047E+02    0.14595E-03   -0.42767E-03   110   0.366E-01    0.472E-02
DAV:   4    -0.760035965823E+02    0.15092E-03   -0.80029E-04   100   0.173E-01    0.142E-02
DAV:   5    -0.760036382559E+02   -0.41674E-04   -0.61194E-05    52   0.641E-02
   4 F= -.76003638E+02 E0= -.76003638E+02  d E =-.297786E-02  mag=     0.0000
 trial-energy change:   -0.002978  1 .order   -0.002878   -0.006421    0.000664
 step:   0.7862(harm=  0.7862)  dis= 0.00589  next Energy=   -76.003570 (dE=-0.291E-02)
 bond charge predicted
       N       E                     dE             d eps       ncg     rms          rms(c)
DAV:   1    -0.760036243787E+02   -0.27796E-04   -0.34974E-03    84   0.412E-01    0.188E-02
DAV:   2    -0.760036184646E+02    0.59141E-05   -0.43820E-05    67   0.539E-02
   5 F= -.76003618E+02 E0= -.76003618E+02  d E =-.295807E-02  mag=     0.0000
 curvature:  -0.55 expect dE=-0.814E-05 dE for cont linesearch -0.484E-06
 trial: gam= 0.00343 g(F)=  0.147E-04 g(S)=  0.000E+00 ort =-0.955E-04 (trialstep = 0.851E+00)
 search vector abs. value=  0.142E-04
 reached required accuracy - stopping structural energy minimisation
 writing wavefunctions
NPROCS =  1
