  12  12   0   0
  0.8333333E+02  0.1000000E-08  0.1000000E-08  0.1000000E-08  0.5000000E-15
  1.000000000000000E-004
  CAR 
 unknown system                          
      3.02190323    -22.71902909  301     -4.87164751      1.00000000
    -22.719  0.0000E+00  0.0000E+00  0.0000E+00  0.0000E+00
    -22.633  0.0000E+00  0.0000E+00  0.0000E+00  0.0000E+00
    -22.547  0.0000E+00  0.0000E+00  0.0000E+00  0.0000E+00
    -22.462  0.0000E+00  0.0000E+00  0.0000E+00  0.0000E+00
    -22.376  0.0000E+00  0.0000E+00  0.0000E+00  0.0000E+00
    -22.290  0.0000E+00  0.0000E+00  0.0000E+00  0.0000E+00
    -22.204  0.0000E+00  0.0000E+00  0.0000E+00  0.0000E+00
    -22.118  0.0000E+00  0.0000E+00  0.0000E+00  0.0000E+00
    -22.033  0.0000E+00  0.0000E+00  0.0000E+00  0.0000E+00
    -21.947  0.0000E+00  0.0000E+00  0.0000E+00  0.0000E+00
    -21.861  0.4852E-15  0.4852E-15  0.4163E-16  0.4163E-16
    -21.775  0.5871E-13  0.5871E-13  0.5079E-14  0.5079E-14
    -21.689  0.4902E-11  0.4904E-11  0.4257E-12  0.4259E-12
    -21.604  0.2849E-09  0.2850E-09  0.2487E-10  0.2488E-10
    -21.518  0.1152E-07  0.1153E-07  0.1014E-08  0.1014E-08
    -21.432  0.3248E-06  0.3249E-06  0.2888E-07  0.2889E-07
    -21.346  0.6380E-05  0.6382E-05  0.5763E-06  0.5765E-06
    -21.260  0.8740E-04  0.8742E-04  0.8075E-05  0.8077E-05
    -21.175  0.8356E-03  0.8358E-03  0.7977E-04  0.7979E-04
    -21.089  0.5579E-02  0.5580E-02  0.5584E-03  0.5585E-03
    -21.003  0.2602E-01  0.2603E-01  0.2791E-02  0.2792E-02
    -20.917  0.8488E-01  0.8489E-01  0.1007E-01  0.1008E-01
    -20.831  0.1936E+00  0.1936E+00  0.2669E-01  0.2669E-01
    -20.746  0.3090E+00  0.3090E+00  0.5320E-01  0.5320E-01
    -20.660  0.3450E+00  0.3450E+00  0.8280E-01  0.8281E-01
    -20.574  0.2696E+00  0.2696E+00  0.1059E+00  0.1059E+00
    -20.488  0.1474E+00  0.1474E+00  0.1186E+00  0.1186E+00
    -20.402  0.5640E-01  0.5639E-01  0.1234E+00  0.1234E+00
    -20.317  0.1509E-01  0.1509E-01  0.1247E+00  0.1247E+00
    -20.231  0.2821E-02  0.2820E-02  0.1250E+00  0.1250E+00
    -20.145  0.3685E-03  0.3684E-03  0.1250E+00  0.1250E+00
    -20.059  0.3360E-04  0.3359E-04  0.1250E+00  0.1250E+00
    -19.973  0.2138E-05  0.2137E-05  0.1250E+00  0.1250E+00
    -19.888  0.9486E-07  0.9482E-07  0.1250E+00  0.1250E+00
    -19.802  0.2933E-08  0.2931E-08  0.1250E+00  0.1250E+00
    -19.716  0.6314E-10  0.6311E-10  0.1250E+00  0.1250E+00
    -19.630  0.9460E-12  0.9455E-12  0.1250E+00  0.1250E+00
    -19.544  0.1003E-13  0.1003E-13  0.1250E+00  0.1250E+00
    -19.459  0.0000E+00  0.0000E+00  0.1250E+00  0.1250E+00
    -19.373  0.0000E+00  0.0000E+00  0.1250E+00  0.1250E+00
    -19.287  0.0000E+00  0.0000E+00  0.1250E+00  0.1250E+00
    -19.201  0.0000E+00  0.0000E+00  0.1250E+00  0.1250E+00
    -19.115  0.1617E-15  0.1617E-15  0.1250E+00  0.1250E+00
    -19.029  0.1383E-13  0.1383E-13  0.1250E+00  0.1250E+00
    -18.944  0.1369E-11  0.1370E-11  0.1250E+00  0.1250E+00
    -18.858  0.9385E-10  0.9389E-10  0.1250E+00  0.1250E+00
    -18.772  0.4477E-08  0.4478E-08  0.1250E+00  0.1250E+00
    -18.686  0.1487E-06  0.1487E-06  0.1250E+00  0.1250E+00
    -18.600  0.3442E-05  0.3443E-05  0.1250E+00  0.1250E+00
    -18.515  0.5554E-04  0.5556E-04  0.1250E+00  0.1250E+00
    -18.429  0.6254E-03  0.6255E-03  0.1251E+00  0.1251E+00
    -18.343  0.4916E-02  0.4917E-02  0.1255E+00  0.1255E+00
    -18.257  0.2699E-01  0.2700E-01  0.1278E+00  0.1278E+00
    -18.171  0.1036E+00  0.1036E+00  0.1367E+00  0.1367E+00
    -18.086  0.2781E+00  0.2781E+00  0.1605E+00  0.1606E+00
    -18.000  0.5221E+00  0.5221E+00  0.2053E+00  0.2054E+00
    -17.914  0.6859E+00  0.6859E+00  0.2642E+00  0.2642E+00
    -17.828  0.6306E+00  0.6306E+00  0.3183E+00  0.3183E+00
    -17.742  0.4057E+00  0.4057E+00  0.3531E+00  0.3531E+00
    -17.657  0.1826E+00  0.1826E+00  0.3688E+00  0.3688E+00
    -17.571  0.5750E-01  0.5749E-01  0.3737E+00  0.3737E+00
    -17.485  0.1266E-01  0.1265E-01  0.3748E+00  0.3748E+00
    -17.399  0.1947E-02  0.1946E-02  0.3750E+00  0.3750E+00
    -17.313  0.2091E-03  0.2091E-03  0.3750E+00  0.3750E+00
    -17.228  0.1568E-04  0.1567E-04  0.3750E+00  0.3750E+00
    -17.142  0.8198E-06  0.8195E-06  0.3750E+00  0.3750E+00
    -17.056  0.2988E-07  0.2987E-07  0.3750E+00  0.3750E+00
    -16.970  0.7587E-09  0.7583E-09  0.3750E+00  0.3750E+00
    -16.884  0.1341E-10  0.1340E-10  0.3750E+00  0.3750E+00
    -16.799  0.1651E-12  0.1650E-12  0.3750E+00  0.3750E+00
    -16.713  0.1294E-14  0.1294E-14  0.3750E+00  0.3750E+00
    -16.627  0.0000E+00  0.0000E+00  0.3750E+00  0.3750E+00
    -16.541  0.0000E+00  0.0000E+00  0.3750E+00  0.3750E+00
    -16.455  0.0000E+00  0.0000E+00  0.3750E+00  0.3750E+00
    -16.370  0.0000E+00  0.0000E+00  0.3750E+00  0.3750E+00
    -16.284  0.0000E+00  0.0000E+00  0.3750E+00  0.3750E+00
    -16.198  0.0000E+00  0.0000E+00  0.3750E+00  0.3750E+00
    -16.112  0.0000E+00  0.0000E+00  0.3750E+00  0.3750E+00
    -16.026  0.0000E+00  0.0000E+00  0.3750E+00  0.3750E+00
    -15.941  0.0000E+00  0.0000E+00  0.3750E+00  0.3750E+00
    -15.855  0.0000E+00  0.0000E+00  0.3750E+00  0.3750E+00
    -15.769  0.0000E+00  0.0000E+00  0.3750E+00  0.3750E+00
    -15.683  0.0000E+00  0.0000E+00  0.3750E+00  0.3750E+00
    -15.597  0.0000E+00  0.0000E+00  0.3750E+00  0.3750E+00
    -15.512  0.0000E+00  0.0000E+00  0.3750E+00  0.3750E+00
    -15.426  0.3477E-14  0.3477E-14  0.3750E+00  0.3750E+00
    -15.340  0.3796E-12  0.3798E-12  0.3750E+00  0.3750E+00
    -15.254  0.2888E-10  0.2889E-10  0.3750E+00  0.3750E+00
    -15.168  0.1529E-08  0.1529E-08  0.3750E+00  0.3750E+00
    -15.083  0.5634E-07  0.5636E-07  0.3750E+00  0.3750E+00
    -14.997  0.1447E-05  0.1447E-05  0.3750E+00  0.3750E+00
    -14.911  0.2590E-04  0.2591E-04  0.3750E+00  0.3750E+00
    -14.825  0.3234E-03  0.3235E-03  0.3750E+00  0.3750E+00
    -14.739  0.2819E-02  0.2819E-02  0.3753E+00  0.3753E+00
    -14.654  0.1716E-01  0.1716E-01  0.3767E+00  0.3767E+00
    -14.568  0.7300E-01  0.7301E-01  0.3830E+00  0.3830E+00
    -14.482  0.2172E+00  0.2172E+00  0.4016E+00  0.4016E+00
    -14.396  0.4518E+00  0.4519E+00  0.4404E+00  0.4404E+00
    -14.310  0.6578E+00  0.6578E+00  0.4969E+00  0.4969E+00
    -14.225  0.6701E+00  0.6701E+00  0.5544E+00  0.5544E+00
    -14.139  0.4777E+00  0.4777E+00  0.5953E+00  0.5953E+00
    -14.053  0.2383E+00  0.2383E+00  0.6158E+00  0.6158E+00
    -13.967  0.8315E-01  0.8314E-01  0.6229E+00  0.6229E+00
    -13.881  0.2029E-01  0.2028E-01  0.6247E+00  0.6247E+00
    -13.796  0.3459E-02  0.3459E-02  0.6250E+00  0.6250E+00
    -13.710  0.4120E-03  0.4119E-03  0.6250E+00  0.6250E+00
    -13.624  0.3425E-04  0.3424E-04  0.6250E+00  0.6250E+00
    -13.538  0.1987E-05  0.1986E-05  0.6250E+00  0.6250E+00
    -13.452  0.8033E-07  0.8030E-07  0.6250E+00  0.6250E+00
    -13.366  0.2263E-08  0.2262E-08  0.6250E+00  0.6250E+00
    -13.281  0.7324E-10  0.7323E-10  0.6250E+00  0.6250E+00
    -13.195  0.1438E-08  0.1438E-08  0.6250E+00  0.6250E+00
    -13.109  0.4985E-07  0.4986E-07  0.6250E+00  0.6250E+00
    -13.023  0.1205E-05  0.1205E-05  0.6250E+00  0.6250E+00
    -12.937  0.2030E-04  0.2030E-04  0.6250E+00  0.6250E+00
    -12.852  0.2386E-03  0.2387E-03  0.6250E+00  0.6250E+00
    -12.766  0.1958E-02  0.1958E-02  0.6252E+00  0.6252E+00
    -12.680  0.1122E-01  0.1122E-01  0.6262E+00  0.6262E+00
    -12.594  0.4495E-01  0.4496E-01  0.6300E+00  0.6300E+00
    -12.508  0.1259E+00  0.1259E+00  0.6408E+00  0.6408E+00
    -12.423  0.2467E+00  0.2467E+00  0.6620E+00  0.6620E+00
    -12.337  0.3383E+00  0.3383E+00  0.6910E+00  0.6910E+00
    -12.251  0.3245E+00  0.3245E+00  0.7189E+00  0.7189E+00
    -12.165  0.2179E+00  0.2179E+00  0.7376E+00  0.7376E+00
    -12.079  0.1023E+00  0.1023E+00  0.7463E+00  0.7463E+00
    -11.994  0.3363E-01  0.3362E-01  0.7492E+00  0.7492E+00
    -11.908  0.7725E-02  0.7723E-02  0.7499E+00  0.7499E+00
    -11.822  0.1240E-02  0.1240E-02  0.7500E+00  0.7500E+00
    -11.736  0.1390E-03  0.1390E-03  0.7500E+00  0.7500E+00
    -11.650  0.1088E-04  0.1088E-04  0.7500E+00  0.7500E+00
    -11.565  0.5939E-06  0.5937E-06  0.7500E+00  0.7500E+00
    -11.479  0.2675E-07  0.2674E-07  0.7500E+00  0.7500E+00
    -11.393  0.1304E-06  0.1304E-06  0.7500E+00  0.7500E+00
    -11.307  0.2826E-05  0.2827E-05  0.7500E+00  0.7500E+00
    -11.221  0.4292E-04  0.4293E-04  0.7500E+00  0.7500E+00
    -11.136  0.4548E-03  0.4548E-03  0.7500E+00  0.7500E+00
    -11.050  0.3365E-02  0.3366E-02  0.7503E+00  0.7503E+00
    -10.964  0.1741E-01  0.1741E-01  0.7518E+00  0.7518E+00
    -10.878  0.6311E-01  0.6311E-01  0.7572E+00  0.7572E+00
    -10.792  0.1611E+00  0.1611E+00  0.7711E+00  0.7711E+00
    -10.707  0.2939E+00  0.2939E+00  0.7963E+00  0.7963E+00
    -10.621  0.3985E+00  0.3985E+00  0.8305E+00  0.8305E+00
    -10.535  0.4390E+00  0.4390E+00  0.8681E+00  0.8681E+00
    -10.449  0.4427E+00  0.4427E+00  0.9061E+00  0.9061E+00
    -10.363  0.4199E+00  0.4199E+00  0.9422E+00  0.9422E+00
    -10.278  0.3382E+00  0.3382E+00  0.9712E+00  0.9712E+00
    -10.192  0.2082E+00  0.2082E+00  0.9890E+00  0.9890E+00
    -10.106  0.9620E-01  0.9619E-01  0.9973E+00  0.9973E+00
    -10.020  0.5239E-01  0.5239E-01  0.1002E+01  0.1002E+01
     -9.934  0.9966E-01  0.9967E-01  0.1010E+01  0.1010E+01
     -9.849  0.2595E+00  0.2595E+00  0.1033E+01  0.1033E+01
     -9.763  0.5011E+00  0.5011E+00  0.1076E+01  0.1076E+01
     -9.677  0.6793E+00  0.6793E+00  0.1134E+01  0.1134E+01
     -9.591  0.6446E+00  0.6445E+00  0.1189E+01  0.1189E+01
     -9.505  0.4280E+00  0.4280E+00  0.1226E+01  0.1226E+01
     -9.420  0.1989E+00  0.1988E+00  0.1243E+01  0.1243E+01
     -9.334  0.6463E-01  0.6462E-01  0.1249E+01  0.1249E+01
     -9.248  0.1469E-01  0.1468E-01  0.1250E+01  0.1250E+01
     -9.162  0.2351E-02  0.2350E-02  0.1250E+01  0.1250E+01
     -9.076  0.4847E-03  0.4846E-03  0.1250E+01  0.1250E+01
     -8.991  0.1891E-02  0.1891E-02  0.1250E+01  0.1250E+01
     -8.905  0.1082E-01  0.1082E-01  0.1251E+01  0.1251E+01
     -8.819  0.4369E-01  0.4369E-01  0.1255E+01  0.1255E+01
     -8.733  0.1234E+00  0.1234E+00  0.1265E+01  0.1265E+01
     -8.647  0.2439E+00  0.2439E+00  0.1286E+01  0.1286E+01
     -8.562  0.3372E+00  0.3371E+00  0.1315E+01  0.1315E+01
     -8.476  0.3262E+00  0.3262E+00  0.1343E+01  0.1343E+01
     -8.390  0.2208E+00  0.2208E+00  0.1362E+01  0.1362E+01
     -8.304  0.1046E+00  0.1046E+00  0.1371E+01  0.1371E+01
     -8.218  0.3508E-01  0.3508E-01  0.1374E+01  0.1374E+01
     -8.133  0.1155E-01  0.1155E-01  0.1375E+01  0.1375E+01
     -8.047  0.2189E-01  0.2190E-01  0.1377E+01  0.1377E+01
     -7.961  0.8426E-01  0.8428E-01  0.1384E+01  0.1384E+01
     -7.875  0.2403E+00  0.2403E+00  0.1405E+01  0.1405E+01
     -7.789  0.4800E+00  0.4801E+00  0.1446E+01  0.1446E+01
     -7.703  0.6711E+00  0.6711E+00  0.1504E+01  0.1504E+01
     -7.618  0.6566E+00  0.6565E+00  0.1560E+01  0.1560E+01
     -7.532  0.4495E+00  0.4495E+00  0.1599E+01  0.1599E+01
     -7.446  0.2153E+00  0.2153E+00  0.1617E+01  0.1617E+01
     -7.360  0.7216E-01  0.7215E-01  0.1623E+01  0.1623E+01
     -7.274  0.1691E-01  0.1690E-01  0.1625E+01  0.1625E+01
     -7.189  0.2769E-02  0.2768E-02  0.1625E+01  0.1625E+01
     -7.103  0.3166E-03  0.3165E-03  0.1625E+01  0.1625E+01
     -7.017  0.2528E-04  0.2527E-04  0.1625E+01  0.1625E+01
     -6.931  0.1408E-05  0.1407E-05  0.1625E+01  0.1625E+01
     -6.845  0.5466E-07  0.5464E-07  0.1625E+01  0.1625E+01
     -6.760  0.1614E-08  0.1613E-08  0.1625E+01  0.1625E+01
     -6.674  0.6263E-08  0.6262E-08  0.1625E+01  0.1625E+01
     -6.588  0.2005E-06  0.2004E-06  0.1625E+01  0.1625E+01
     -6.502  0.4491E-05  0.4490E-05  0.1625E+01  0.1625E+01
     -6.416  0.7016E-04  0.7015E-04  0.1625E+01  0.1625E+01
     -6.331  0.7647E-03  0.7646E-03  0.1625E+01  0.1625E+01
     -6.245  0.5820E-02  0.5819E-02  0.1626E+01  0.1626E+01
     -6.159  0.3094E-01  0.3093E-01  0.1628E+01  0.1628E+01
     -6.073  0.1150E+00  0.1150E+00  0.1638E+01  0.1638E+01
     -5.987  0.2987E+00  0.2987E+00  0.1664E+01  0.1664E+01
     -5.902  0.5431E+00  0.5431E+00  0.1710E+01  0.1710E+01
     -5.816  0.6908E+00  0.6908E+00  0.1770E+01  0.1770E+01
     -5.730  0.6149E+00  0.6150E+00  0.1822E+01  0.1822E+01
     -5.644  0.3830E+00  0.3831E+00  0.1855E+01  0.1855E+01
     -5.558  0.1669E+00  0.1669E+00  0.1870E+01  0.1870E+01
     -5.473  0.5088E-01  0.5089E-01  0.1874E+01  0.1874E+01
     -5.387  0.1084E-01  0.1084E-01  0.1875E+01  0.1875E+01
     -5.301  0.1614E-02  0.1615E-02  0.1875E+01  0.1875E+01
     -5.215  0.1679E-03  0.1679E-03  0.1875E+01  0.1875E+01
     -5.129  0.1218E-04  0.1218E-04  0.1875E+01  0.1875E+01
     -5.044  0.6164E-06  0.6166E-06  0.1875E+01  0.1875E+01
     -4.958  0.2174E-07  0.2175E-07  0.1875E+01  0.1875E+01
     -4.872  0.5343E-09  0.5344E-09  0.1875E+01  0.1875E+01
     -4.786  0.9139E-11  0.9142E-11  0.1875E+01  0.1875E+01
     -4.700  0.1089E-12  0.1090E-12  0.1875E+01  0.1875E+01
     -4.615  0.8087E-15  0.8087E-15  0.1875E+01  0.1875E+01
     -4.529  0.0000E+00  0.0000E+00  0.1875E+01  0.1875E+01
     -4.443  0.0000E+00  0.0000E+00  0.1875E+01  0.1875E+01
     -4.357  0.0000E+00  0.0000E+00  0.1875E+01  0.1875E+01
     -4.271  0.0000E+00  0.0000E+00  0.1875E+01  0.1875E+01
     -4.186  0.0000E+00  0.0000E+00  0.1875E+01  0.1875E+01
     -4.100  0.0000E+00  0.0000E+00  0.1875E+01  0.1875E+01
     -4.014  0.0000E+00  0.0000E+00  0.1875E+01  0.1875E+01
     -3.928  0.0000E+00  0.0000E+00  0.1875E+01  0.1875E+01
     -3.842  0.0000E+00  0.0000E+00  0.1875E+01  0.1875E+01
     -3.757  0.0000E+00  0.0000E+00  0.1875E+01  0.1875E+01
     -3.671  0.0000E+00  0.0000E+00  0.1875E+01  0.1875E+01
     -3.585  0.0000E+00  0.0000E+00  0.1875E+01  0.1875E+01
     -3.499  0.0000E+00  0.0000E+00  0.1875E+01  0.1875E+01
     -3.413  0.0000E+00  0.0000E+00  0.1875E+01  0.1875E+01
     -3.328  0.0000E+00  0.0000E+00  0.1875E+01  0.1875E+01
     -3.242  0.0000E+00  0.0000E+00  0.1875E+01  0.1875E+01
     -3.156  0.0000E+00  0.0000E+00  0.1875E+01  0.1875E+01
     -3.070  0.0000E+00  0.0000E+00  0.1875E+01  0.1875E+01
     -2.984  0.0000E+00  0.0000E+00  0.1875E+01  0.1875E+01
     -2.899  0.0000E+00  0.0000E+00  0.1875E+01  0.1875E+01
     -2.813  0.0000E+00  0.0000E+00  0.1875E+01  0.1875E+01
     -2.727  0.0000E+00  0.0000E+00  0.1875E+01  0.1875E+01
     -2.641  0.0000E+00  0.0000E+00  0.1875E+01  0.1875E+01
     -2.555  0.0000E+00  0.0000E+00  0.1875E+01  0.1875E+01
     -2.469  0.0000E+00  0.0000E+00  0.1875E+01  0.1875E+01
     -2.384  0.0000E+00  0.0000E+00  0.1875E+01  0.1875E+01
     -2.298  0.0000E+00  0.0000E+00  0.1875E+01  0.1875E+01
     -2.212  0.0000E+00  0.0000E+00  0.1875E+01  0.1875E+01
     -2.126  0.0000E+00  0.0000E+00  0.1875E+01  0.1875E+01
     -2.040  0.0000E+00  0.0000E+00  0.1875E+01  0.1875E+01
     -1.955  0.0000E+00  0.0000E+00  0.1875E+01  0.1875E+01
     -1.869  0.2022E-14  0.2022E-14  0.1875E+01  0.1875E+01
     -1.783  0.2310E-12  0.2309E-12  0.1875E+01  0.1875E+01
     -1.697  0.1824E-10  0.1823E-10  0.1875E+01  0.1875E+01
     -1.611  0.1002E-08  0.1002E-08  0.1875E+01  0.1875E+01
     -1.526  0.3838E-07  0.3836E-07  0.1875E+01  0.1875E+01
     -1.440  0.1024E-05  0.1023E-05  0.1875E+01  0.1875E+01
     -1.354  0.1905E-04  0.1904E-04  0.1875E+01  0.1875E+01
     -1.268  0.2473E-03  0.2473E-03  0.1875E+01  0.1875E+01
     -1.182  0.2243E-02  0.2242E-02  0.1875E+01  0.1875E+01
     -1.097  0.1421E-01  0.1420E-01  0.1876E+01  0.1876E+01
     -1.011  0.6295E-01  0.6294E-01  0.1882E+01  0.1882E+01
     -0.925  0.1953E+00  0.1953E+00  0.1899E+01  0.1899E+01
     -0.839  0.4257E+00  0.4257E+00  0.1935E+01  0.1935E+01
     -0.753  0.6582E+00  0.6582E+00  0.1992E+01  0.1992E+01
     -0.668  0.7435E+00  0.7435E+00  0.2055E+01  0.2055E+01
     -0.582  0.6648E+00  0.6649E+00  0.2112E+01  0.2112E+01
     -0.496  0.5439E+00  0.5439E+00  0.2159E+01  0.2159E+01
     -0.410  0.4427E+00  0.4428E+00  0.2197E+01  0.2197E+01
     -0.324  0.3246E+00  0.3245E+00  0.2225E+01  0.2225E+01
     -0.239  0.1861E+00  0.1861E+00  0.2241E+01  0.2241E+01
     -0.153  0.7755E-01  0.7753E-01  0.2248E+01  0.2248E+01
     -0.067  0.2287E-01  0.2286E-01  0.2250E+01  0.2250E+01
      0.019  0.4730E-02  0.4728E-02  0.2250E+01  0.2250E+01
      0.105  0.6851E-03  0.6847E-03  0.2250E+01  0.2250E+01
      0.190  0.8266E-04  0.8263E-04  0.2250E+01  0.2250E+01
      0.276  0.1728E-03  0.1730E-03  0.2250E+01  0.2250E+01
      0.362  0.1461E-02  0.1463E-02  0.2250E+01  0.2250E+01
      0.448  0.8921E-02  0.8930E-02  0.2251E+01  0.2251E+01
      0.534  0.3848E-01  0.3851E-01  0.2254E+01  0.2254E+01
      0.619  0.1189E+00  0.1190E+00  0.2264E+01  0.2264E+01
      0.705  0.2703E+00  0.2706E+00  0.2288E+01  0.2288E+01
      0.791  0.4745E+00  0.4751E+00  0.2328E+01  0.2328E+01
      0.877  0.6802E+00  0.6809E+00  0.2387E+01  0.2387E+01
      0.963  0.8190E+00  0.8195E+00  0.2457E+01  0.2457E+01
      1.048  0.8067E+00  0.8064E+00  0.2526E+01  0.2526E+01
      1.134  0.6149E+00  0.6142E+00  0.2579E+01  0.2579E+01
      1.220  0.3465E+00  0.3458E+00  0.2609E+01  0.2609E+01
      1.306  0.1405E+00  0.1401E+00  0.2621E+01  0.2621E+01
      1.392  0.4045E-01  0.4032E-01  0.2624E+01  0.2624E+01
      1.477  0.8217E-02  0.8189E-02  0.2625E+01  0.2625E+01
      1.563  0.1174E-02  0.1170E-02  0.2625E+01  0.2625E+01
      1.649  0.1178E-03  0.1174E-03  0.2625E+01  0.2625E+01
      1.735  0.8283E-05  0.8254E-05  0.2625E+01  0.2625E+01
      1.821  0.4079E-06  0.4066E-06  0.2625E+01  0.2625E+01
      1.906  0.1406E-07  0.1401E-07  0.2625E+01  0.2625E+01
      1.992  0.3385E-09  0.3376E-09  0.2625E+01  0.2625E+01
      2.078  0.5692E-11  0.5680E-11  0.2625E+01  0.2625E+01
      2.164  0.6680E-13  0.6680E-13  0.2625E+01  0.2625E+01
      2.250  0.4852E-15  0.4852E-15  0.2625E+01  0.2625E+01
      2.335  0.0000E+00  0.0000E+00  0.2625E+01  0.2625E+01
      2.421  0.0000E+00  0.0000E+00  0.2625E+01  0.2625E+01
      2.507  0.0000E+00  0.0000E+00  0.2625E+01  0.2625E+01
      2.593  0.0000E+00  0.0000E+00  0.2625E+01  0.2625E+01
      2.679  0.0000E+00  0.0000E+00  0.2625E+01  0.2625E+01
      2.764  0.0000E+00  0.0000E+00  0.2625E+01  0.2625E+01
      2.850  0.0000E+00  0.0000E+00  0.2625E+01  0.2625E+01
      2.936  0.0000E+00  0.0000E+00  0.2625E+01  0.2625E+01
      3.022  0.0000E+00  0.0000E+00  0.2625E+01  0.2625E+01
