   12   12    8    2
  0.8333333E+02  0.1000000E-08  0.1000000E-08  0.1000000E-08  0.5000000E-15
  1.000000000000000E-004
  CAR 
 unknown system                          
   30    1   21
 
  0.0000000E+00  0.0000000E+00  0.0000000E+00  0.1000000E+01
   1      -20.719019    -20.719029
   2      -17.935189    -17.935199
   3      -17.933329    -17.933339
   4      -14.306539    -14.306549
   5      -14.305179    -14.305188
   6      -12.346815    -12.346823
   7      -10.655535    -10.655543
   8      -10.383539    -10.383550
   9       -9.690871     -9.690881
  10       -9.688258     -9.688268
  11       -8.569467     -8.569466
  12       -7.710278     -7.710289
  13       -7.707214     -7.707226
  14       -5.844426     -5.844419
  15       -5.843143     -5.843137
  16       -0.744024     -0.744013
  17       -0.733791     -0.733779
  18       -0.444943     -0.444969
  19        0.794196      0.794153
  20        0.985876      0.985278
  21        1.021856      1.021903
