 vasp.5.2.12 11Nov11 complex                                                    
  
 executed on             LinuxIFC date 2012.11.01  17:03:39
 running on    1 nodes
 distr:  one band on    1 nodes,    1 groups


--------------------------------------------------------------------------------------------------------


 INCAR:
 POTCAR:   PAW_PBE H 15Jun2001                    
 POTCAR:   PAW_PBE C 08Apr2002                    
 POTCAR:   PAW_PBE H 15Jun2001                    
   VRHFIN =H: ultrasoft test                                                    
   LEXCH  = PE                                                                  
   EATOM  =    12.4884 eV,     .9179 Ry                                         
                                                                                
   TITEL  = PAW_PBE H 15Jun2001                                                 
   LULTRA =        F    use ultrasoft PP ?                                      
   IUNSCR =        0    unscreen: 0-lin 1-nonlin 2-no                           
   RPACOR =     .000    partial core radius                                     
   POMASS =    1.000; ZVAL   =    1.000    mass and valenz                      
   RCORE  =    1.100    outmost cutoff radius                                   
   RWIGS  =     .700; RWIGS  =     .370    wigner-seitz radius (au A)           
   ENMAX  =  250.000; ENMIN  =  200.000 eV                                      
   RCLOC  =     .701    cutoff for local pot                                    
   LCOR   =        T    correct aug charges                                     
   LPAW   =        T    paw PP                                                  
   EAUG   =  400.000                                                            
   RMAX   =    2.174    core radius for proj-oper                               
   RAUG   =    1.200    factor for augmentation sphere                          
   RDEP   =    1.112    radius for radial grids                                 
   QCUT   =   -5.749; QGAM   =   11.498    optimization parameters              
                                                                                
   Description                                                                  
     l     E      TYP  RCUT    TYP  RCUT                                        
     0   .000     23  1.100                                                     
     0   .500     23  1.100                                                     
     1  -.300     23  1.100                                                     
  local pseudopotential read in
  atomic valenz-charges read in
  non local Contribution for L=           0  read in
    real space projection operators read in
  non local Contribution for L=           0  read in
    real space projection operators read in
  non local Contribution for L=           1  read in
    real space projection operators read in
    PAW grid and wavefunctions read in
 
   number of l-projection  operators is LMAX  =           3
   number of lm-projection operators is LMMAX =           5
 
 POTCAR:   PAW_PBE C 08Apr2002                    
   VRHFIN =C: s2p2                                                              
   LEXCH  = PE                                                                  
   EATOM  =   147.1560 eV,   10.8157 Ry                                         
                                                                                
   TITEL  = PAW_PBE C 08Apr2002                                                 
   LULTRA =        F    use ultrasoft PP ?                                      
   IUNSCR =        0    unscreen: 0-lin 1-nonlin 2-no                           
   RPACOR =     .000    partial core radius                                     
   POMASS =   12.011; ZVAL   =    4.000    mass and valenz                      
   RCORE  =    1.500    outmost cutoff radius                                   
   RWIGS  =    1.630; RWIGS  =     .863    wigner-seitz radius (au A)           
   ENMAX  =  400.000; ENMIN  =  300.000 eV                                      
   ICORE  =        2    local potential                                         
   LCOR   =        T    correct aug charges                                     
   LPAW   =        T    paw PP                                                  
   EAUG   =  644.873                                                            
   DEXC   =     .000                                                            
   RMAX   =    2.266    core radius for proj-oper                               
   RAUG   =    1.300    factor for augmentation sphere                          
   RDEP   =    1.501    radius for radial grids                                 
   RDEPT  =    1.300    core radius for aug-charge                              
   QCUT   =   -5.516; QGAM   =   11.032    optimization parameters              
                                                                                
   Description                                                                  
     l     E      TYP  RCUT    TYP  RCUT                                        
     0   .000     23  1.200                                                     
     0   .000     23  1.200                                                     
     1   .000     23  1.500                                                     
     1  2.500     23  1.500                                                     
     2   .000      7  1.500                                                     
  local pseudopotential read in
  atomic valenz-charges read in
  non local Contribution for L=           0  read in
    real space projection operators read in
  non local Contribution for L=           0  read in
    real space projection operators read in
  non local Contribution for L=           1  read in
    real space projection operators read in
  non local Contribution for L=           1  read in
    real space projection operators read in
    PAW grid and wavefunctions read in
 
   number of l-projection  operators is LMAX  =           4
   number of lm-projection operators is LMMAX =           8
 
 PAW_PBE H 15Jun2001                    :
 energy of atom  1       EATOM=  -12.4884
 kinetic energy error for atom=    0.0203 (will be added to EATOM!!)
 PAW_PBE C 08Apr2002                    :
 energy of atom  2       EATOM= -147.1560
 kinetic energy error for atom=    0.0854 (will be added to EATOM!!)
 
 
 POSCAR:  H  C                                   
  positions in cartesian coordinates
  No initial velocities read in
 exchange correlation table for  LEXCH =        8
   RHO(1)=    0.500       N(1)  =     2000
   RHO(2)=  100.500       N(2)  =     4000
 


--------------------------------------------------------------------------------------------------------


 ion  position               nearest neighbor table
   1  0.500  0.748  0.500-   7 1.09
   2  0.715  0.624  0.500-   8 1.09
   3  0.715  0.376  0.500-   9 1.09
   4  0.500  0.252  0.500-  10 1.09
   5  0.285  0.376  0.500-  11 1.09
   6  0.285  0.624  0.500-  12 1.09
   7  0.500  0.640  0.500-   1 1.09   8 1.40  12 1.40
   8  0.621  0.570  0.500-   2 1.09   7 1.40   9 1.40
   9  0.621  0.430  0.500-   3 1.09  10 1.40   8 1.40
  10  0.500  0.360  0.500-   4 1.09   9 1.40  11 1.40
  11  0.379  0.430  0.500-   5 1.09  10 1.40  12 1.40
  12  0.379  0.570  0.500-   6 1.09   7 1.40  11 1.40
 
  LATTYP: Found a simple cubic cell.
 ALAT       =    10.0000000000
  
  Lattice vectors:
  
 A1 = (  10.0000000000,   0.0000000000,   0.0000000000)
 A2 = (   0.0000000000,  10.0000000000,   0.0000000000)
 A3 = (   0.0000000000,   0.0000000000,  10.0000000000)
 Subroutine PRICEL returns:
 Original cell was already a primitive cell.
 

Analysis of symmetry for initial positions (statically):

 Routine SETGRP: Setting up the symmetry group for a 
 simple cubic supercell.


 Subroutine GETGRP returns: Found  8 space group operations
 (whereof  8 operations were pure point group operations)
 out of a pool of 48 trial point group operations.


The static configuration has the point symmetry D_2h.

Analysis of symmetry for dynamics (positions and initial velocities):

 Subroutine DYNSYM returns: Found  8 space group operations
 (whereof  8 operations were pure point group operations)
 out of a pool of  8 trial space group operations
 (whereof  8 operations were pure point group operations)
 and found also     1 'primitive' translations


The dynamic configuration has the point symmetry D_2h.

Analysis of magnetic symmetry:

 Subroutine MAGSYM returns: Found  8 space group operations
 (whereof  8 operations were pure point group operations)
 out of a pool of  8 trial space group operations
 (whereof  8 operations were pure point group operations)
 and found also     1 'primitive' translations


The magnetic configuration has the point symmetry D_2h.
 
 
 KPOINTS: KPOINTS created by Atomic Simulation Env

Automatic generation of k-mesh.
 
 Subroutine IBZKPT returns following result:
 ===========================================
 
 Found      1 irreducible k-points:
 
 Following reciprocal coordinates:
            Coordinates               Weight
  0.000000  0.000000  0.000000      1.000000
 
 Following cartesian coordinates:
            Coordinates               Weight
  0.000000  0.000000  0.000000      1.000000
 


--------------------------------------------------------------------------------------------------------




 Dimension of arrays:
   k-points           NKPTS =      1   k-points in BZ     NKDIM =      1   number of bands    NBANDS=     21
   number of dos      NEDOS =    301   number of ions     NIONS =     12
   non local maximal  LDIM  =      4   non local SUM 2l+1 LMDIM =      8
   total plane-waves  NPLWV = 110592
   max r-space proj   IRMAX =      1   max aug-charges    IRDMAX=   1504
   dimension x,y,z NGX =    48 NGY =   48 NGZ =   48
   dimension x,y,z NGXF=    96 NGYF=   96 NGZF=   96
   support grid    NGXF=    96 NGYF=   96 NGZF=   96
   ions per type =               6   6
 NGX,Y,Z   is equivalent  to a cutoff of   7.98,  7.98,  7.98 a.u.
 NGXF,Y,Z  is equivalent  to a cutoff of  15.96, 15.96, 15.96 a.u.


 I would recommend the setting:
   dimension x,y,z NGX =    46 NGY =   46 NGZ =   46
 SYSTEM =  unknown system                          
 POSCAR =   H  C                                   

 Startparameter for this run:
   NWRITE =      2    write-flag & timer
   PREC   = normal    normal or accurate (medium, high low for compatibility)
   ISTART =      0    job   : 0-new  1-cont  2-samecut
   ICHARG =      2    charge: 1-file 2-atom 10-const
   ISPIN  =      2    spin polarized calculation?
   LNONCOLLINEAR =      F non collinear calculations
   LSORBIT =      F    spin-orbit coupling
   INIWAV =      1    electr: 0-lowe 1-rand  2-diag
   LASPH  =      F    aspherical Exc in radial PAW
   METAGGA=      F    non-selfconsistent MetaGGA calc.

 Electronic Relaxation 1
   ENCUT  =  350.0 eV  25.72 Ry    5.07 a.u.  15.25 15.25 15.25*2*pi/ulx,y,z
   ENINI  =  350.0     initial cutoff
   ENAUG  =  644.9 eV  augmentation charge cutoff
   NELM   =     60;   NELMIN=  2; NELMDL= -5     # of ELM steps 
   EDIFF  = 0.1E-03   stopping-criterion for ELM
   LREAL  =      F    real-space projection
   NLSPLINE    = F    spline interpolate recip. space projectors
   LCOMPAT=      F    compatible to vasp.4.4
   GGA_COMPAT  = T    GGA compatible to vasp.4.4-vasp.4.6
   LMAXPAW     = -100 max onsite density
   LMAXMIX     =    2 max onsite mixed and CHGCAR
   VOSKOWN=      0    Vosko Wilk Nusair interpolation
   ROPT   =    0.00000   0.00000
 Ionic relaxation
   EDIFFG = 0.1E-02   stopping-criterion for IOM
   NSW    =      8    number of steps for IOM
   NBLOCK =      1;   KBLOCK =      8    inner block; outer block 
   IBRION =      2    ionic relax: 0-MD 1-quasi-New 2-CG
   NFREE  =      1    steps in history (QN), initial steepest desc. (CG)
   ISIF   =      2    stress and relaxation
   IWAVPR =     11    prediction:  0-non 1-charg 2-wave 3-comb
   ISYM   =      2    0-nonsym 1-usesym 2-fastsym
   LCORR  =      T    Harris-Foulkes like correction to forces

   POTIM  = 0.5000    time-step for ionic-motion
   TEIN   =    0.0    initial temperature
   TEBEG  =    0.0;   TEEND  =   0.0 temperature during run
   SMASS  =  -3.00    Nose mass-parameter (am)
   estimated Nose-frequenzy (Omega)   =  0.10E-29 period in steps =****** mass=  -0.229E-26a.u.
   SCALEE = 1.0000    scale energy and forces
   NPACO  =    256;   APACO  = 16.0  distance and # of slots for P.C.
   PSTRESS=    0.0 pullay stress

  Mass of Ions in am
   POMASS =   1.00 12.01
  Ionic Valenz
   ZVAL   =   1.00  4.00
  Atomic Wigner-Seitz radii
   RWIGS  =  -1.00 -1.00
  virtual crystal weights 
   VCA    =   1.00  1.00
   NELECT =      30.0000    total number of electrons
   NUPDOWN=      -1.0000    fix difference up-down

 DOS related values:
   EMIN   =  10.00;   EMAX   =-10.00  energy-range for DOS
   EFERMI =   0.00
   ISMEAR =     0;   SIGMA  =   0.20  broadening in eV -4-tet -1-fermi 0-gaus

 Electronic relaxation 2 (details)
   IALGO  =     38    algorithm
   LDIAG  =      T    sub-space diagonalisation (order eigenvalues)
   LSUBROT=      T    optimize rotation matrix (better conditioning)
   TURBO    =      0    0=normal 1=particle mesh
   IRESTART =      0    0=no restart 2=restart with 2 vectors
   NREBOOT  =      0    no. of reboots
   NMIN     =      0    reboot dimension
   EREF     =   0.00    reference energy to select bands
   IMIX   =      4    mixing-type and parameters
     AMIX     =   0.40;   BMIX     =  1.00
     AMIX_MAG =   1.60;   BMIX_MAG =  1.00
     AMIN     =   0.10
     WC   =   100.;   INIMIX=   1;  MIXPRE=   1

 Intra band minimization:
   WEIMIN = 0.0010     energy-eigenvalue tresh-hold
   EBREAK =  0.12E-05  absolut break condition
   DEPER  =   0.30     relativ break condition  

   TIME   =   0.40     timestep for ELM

  volume/ion in A,a.u.               =      83.33       562.36
  Fermi-wavevector in a.u.,A,eV,Ry     =   0.508685  0.961274  3.520644  0.258760
  Thomas-Fermi vector in A             =   1.520821
 
 Write flags
   LWAVE  =      T    write WAVECAR
   LCHARG =      T    write CHGCAR
   LVTOT  =      F    write LOCPOT, total local potential
   LVHAR  =      F    write LOCPOT, Hartree potential only
   LELF   =      F    write electronic localiz. function (ELF)
   LORBIT =      0    0 simple, 1 ext, 2 COOP (PROOUT)


 Dipole corrections
   LMONO  =      F    monopole corrections only (constant potential shift)
   LDIPOL =      F    correct potential (dipole corrections)
   IDIPOL =      0    1-x, 2-y, 3-z, 4-all directions 
   EPSILON=  1.0000000 bulk dielectric constant

 Exchange correlation treatment:
   GGA     =    --    GGA type
   LEXCH   =     8    internal setting for exchange type
   VOSKOWN=      0    Vosko Wilk Nusair interpolation
   LHFCALC =     F    Hartree Fock is set to
   LHFONE  =     F    Hartree Fock one center treatment
   AEXX    =    0.0000 exact exchange contribution

 Linear response parameters
   LEPSILON=     F    determine dielectric tensor
   LRPA    =     F    only Hartree local field effects (RPA)
   LNABLA  =     F    use nabla operator in PAW spheres
   LVEL    =     F    velocity operator in full k-point grid
   LINTERFAST=   F  fast interpolation
   KINTER  =     0    interpolate to denser k-point grid
   CSHIFT  =0.1000    complex shift for real part using Kramers Kronig
   OMEGAMAX=  -1.0    maximum frequency
   RTIME   =    0.100 relaxation time in fs

 Orbital magnetization related:
   ORBITALMAG=     F  switch on orbital magnetization
   LCHIMAG   =     F  perturbation theory with respect to B field
   DQ        =  0.001000  dq finite difference perturbation B field



--------------------------------------------------------------------------------------------------------


 conjugate gradient relaxation of ions
 charge density and potential will be updated during run
 spin polarized calculation
 Variant of blocked Davidson
 Davidson routine will perform the subspace rotation
 perform sub-space diagonalisation
    after iterative eigenvector-optimisation
 modified Broyden-mixing scheme, WC =      100.0
 initial mixing is a Kerker type mixing with AMIX =  0.4000 and BMIX =      1.0000
 Hartree-type preconditioning will be used
 using additional bands            6
 reciprocal scheme for non local part
 calculate Harris-corrections to forces 
   (improved forces if not selfconsistent)
 use gradient corrections 
 use of overlap-Matrix (Vanderbilt PP)
 Gauss-broadening in eV      SIGMA  =   0.20


--------------------------------------------------------------------------------------------------------


  energy-cutoff  :      350.00
  volume of cell :     1000.00
      direct lattice vectors                 reciprocal lattice vectors
    10.000000000  0.000000000  0.000000000     0.100000000  0.000000000  0.000000000
     0.000000000 10.000000000  0.000000000     0.000000000  0.100000000  0.000000000
     0.000000000  0.000000000 10.000000000     0.000000000  0.000000000  0.100000000

  length of vectors
    10.000000000 10.000000000 10.000000000     0.100000000  0.100000000  0.100000000


 
 k-points in units of 2pi/SCALE and weight: KPOINTS created by Atomic Simulation Env
   0.00000000  0.00000000  0.00000000       1.000
 
 k-points in reciprocal lattice and weights: KPOINTS created by Atomic Simulation Env
   0.00000000  0.00000000  0.00000000       1.000
 
 position of ions in fractional coordinates (direct lattice) 
   0.50000000  0.74823600  0.50000000
   0.71497870  0.62411800  0.50000000
   0.71497870  0.37588200  0.50000000
   0.50000000  0.25176400  0.50000000
   0.28502130  0.37588200  0.50000000
   0.28502130  0.62411800  0.50000000
   0.50000000  0.63952480  0.50000000
   0.62083200  0.56976240  0.50000000
   0.62083200  0.43023760  0.50000000
   0.50000000  0.36047520  0.50000000
   0.37916800  0.43023760  0.50000000
   0.37916800  0.56976240  0.50000000
 
 position of ions in cartesian coordinates  (Angst):
   5.00000000  7.48236000  5.00000000
   7.14978700  6.24118000  5.00000000
   7.14978700  3.75882000  5.00000000
   5.00000000  2.51764000  5.00000000
   2.85021300  3.75882000  5.00000000
   2.85021300  6.24118000  5.00000000
   5.00000000  6.39524800  5.00000000
   6.20832000  5.69762400  5.00000000
   6.20832000  4.30237600  5.00000000
   5.00000000  3.60475200  5.00000000
   3.79168000  4.30237600  5.00000000
   3.79168000  5.69762400  5.00000000
 


--------------------------------------------------------------------------------------------------------


 k-point  1 :  0.00000.00000.0000  plane waves:   14795

 maximum and minimum number of plane-waves per node :     14795    14795

 maximum number of plane-waves:     14795
 maximum index in each direction: 
   IXMAX=   15   IYMAX=   15   IZMAX=   15
   IXMIN=  -15   IYMIN=  -15   IZMIN=  -15

 WARNING: aliasing errors must be expected set NGX to  62 to avoid them
 WARNING: aliasing errors must be expected set NGY to  62 to avoid them
 WARNING: aliasing errors must be expected set NGZ to  62 to avoid them
 aliasing errors are usually negligible using standard VASP settings
 and one can safely disregard these warnings

 serial   3D FFT for wavefunctions
 parallel 3D FFT for charge:
    minimum data exchange during FFTs selected (reduces bandwidth)


 total amount of memory used by VASP on root node   156416. kBytes
========================================================================

   base      :      30000. kBytes
   nonl-proj :       4734. kBytes
   fftplans  :      30736. kBytes
   grid      :      80879. kBytes
   one-center:         73. kBytes
   wavefun   :       9994. kBytes
 
 Broyden mixing: mesh for mixing (old mesh)
   NGX = 31   NGY = 31   NGZ = 31
  (NGX  = 96   NGY  = 96   NGZ  = 96)
  gives a total of  29791 points

 initial charge density was supplied:
 charge density of overlapping atoms calculated
 number of electron      30.0000000 magnetization      12.0000000
 keeping initial charge density in first step


--------------------------------------------------------------------------------------------------------


 Maximum index for augmentation-charges         1264 (set IRDMAX)


--------------------------------------------------------------------------------------------------------


 First call to EWALD:  gamma=   0.177
 Maximum number of real-space cells 3x 3x 3
 Maximum number of reciprocal cells 3x 3x 3

    FEWALD:  cpu time    0.00: real time    0.00


----------------------------------------- Iteration    1(   1)  ---------------------------------------


    POTLOK:  cpu time    3.18: real time    3.18
    SETDIJ:  cpu time    0.13: real time    0.13
     EDDAV:  cpu time    5.06: real time    5.06
       DOS:  cpu time    0.00: real time    0.00
    --------------------------------------------
      LOOP:  cpu time    8.36: real time    8.37

 eigenvalue-minimisations  :   124
 total energy-change (2. order) : 0.1368580E+03  (-0.8667653E+03)
 number of electron      30.0000000 magnetization      12.0000000
 augmentation part       30.0000000 magnetization      12.0000000

 Free energy of the ion-electron system (eV)
  ---------------------------------------------------
  alpha Z        PSCENC =         4.10512363
  Ewald energy   TEWEN  =      1046.12020431
  -1/2 Hartree   DENC   =     -1683.85644322
  -exchange  EXHF       =         0.00000000
  -V(xc)+E(xc)   XCENC  =        97.94112037
  PAW double counting   =       229.49348703     -236.39350157
  entropy T*S    EENTRO =        -0.11316739
  eigenvalues    EBANDS =      -277.67136099
  atomic energy  EATOM  =       957.23250565
  ---------------------------------------------------
  free energy    TOTEN  =       136.85796782 eV

  energy without entropy =      136.97113521  energy(sigma->0) =      136.91455152


--------------------------------------------------------------------------------------------------------




----------------------------------------- Iteration    1(   2)  ---------------------------------------


     EDDAV:  cpu time    6.15: real time    6.16
       DOS:  cpu time    0.00: real time    0.00
    --------------------------------------------
      LOOP:  cpu time    6.16: real time    6.16

 eigenvalue-minimisations  :   128
 total energy-change (2. order) :-0.1686202E+03  (-0.1620414E+03)
 number of electron      30.0000000 magnetization      12.0000000
 augmentation part       30.0000000 magnetization      12.0000000

 Free energy of the ion-electron system (eV)
  ---------------------------------------------------
  alpha Z        PSCENC =         4.10512363
  Ewald energy   TEWEN  =      1046.12020431
  -1/2 Hartree   DENC   =     -1683.85644322
  -exchange  EXHF       =         0.00000000
  -V(xc)+E(xc)   XCENC  =        97.94112037
  PAW double counting   =       229.49348703     -236.39350157
  entropy T*S    EENTRO =        -0.00002622
  eigenvalues    EBANDS =      -446.40466098
  atomic energy  EATOM  =       957.23250565
  ---------------------------------------------------
  free energy    TOTEN  =       -31.76219100 eV

  energy without entropy =      -31.76216477  energy(sigma->0) =      -31.76217788


--------------------------------------------------------------------------------------------------------




----------------------------------------- Iteration    1(   3)  ---------------------------------------


     EDDAV:  cpu time    5.51: real time    5.51
       DOS:  cpu time    0.00: real time    0.00
    --------------------------------------------
      LOOP:  cpu time    5.51: real time    5.52

 eigenvalue-minimisations  :   112
 total energy-change (2. order) :-0.3728461E+02  (-0.3718971E+02)
 number of electron      30.0000000 magnetization      12.0000000
 augmentation part       30.0000000 magnetization      12.0000000

 Free energy of the ion-electron system (eV)
  ---------------------------------------------------
  alpha Z        PSCENC =         4.10512363
  Ewald energy   TEWEN  =      1046.12020431
  -1/2 Hartree   DENC   =     -1683.85644322
  -exchange  EXHF       =         0.00000000
  -V(xc)+E(xc)   XCENC  =        97.94112037
  PAW double counting   =       229.49348703     -236.39350157
  entropy T*S    EENTRO =         0.00000000
  eigenvalues    EBANDS =      -483.68929628
  atomic energy  EATOM  =       957.23250565
  ---------------------------------------------------
  free energy    TOTEN  =       -69.04680007 eV

  energy without entropy =      -69.04680007  energy(sigma->0) =      -69.04680007


--------------------------------------------------------------------------------------------------------




----------------------------------------- Iteration    1(   4)  ---------------------------------------


     EDDAV:  cpu time    4.40: real time    4.40
       DOS:  cpu time    0.00: real time    0.00
    --------------------------------------------
      LOOP:  cpu time    4.40: real time    4.42

 eigenvalue-minimisations  :    84
 total energy-change (2. order) :-0.2058904E+01  (-0.2055157E+01)
 number of electron      30.0000000 magnetization      12.0000000
 augmentation part       30.0000000 magnetization      12.0000000

 Free energy of the ion-electron system (eV)
  ---------------------------------------------------
  alpha Z        PSCENC =         4.10512363
  Ewald energy   TEWEN  =      1046.12020431
  -1/2 Hartree   DENC   =     -1683.85644322
  -exchange  EXHF       =         0.00000000
  -V(xc)+E(xc)   XCENC  =        97.94112037
  PAW double counting   =       229.49348703     -236.39350157
  entropy T*S    EENTRO =         0.00000000
  eigenvalues    EBANDS =      -485.74820011
  atomic energy  EATOM  =       957.23250565
  ---------------------------------------------------
  free energy    TOTEN  =       -71.10570390 eV

  energy without entropy =      -71.10570390  energy(sigma->0) =      -71.10570390


--------------------------------------------------------------------------------------------------------




----------------------------------------- Iteration    1(   5)  ---------------------------------------


     EDDAV:  cpu time    5.77: real time    5.77
       DOS:  cpu time    0.00: real time    0.00
    CHARGE:  cpu time    0.66: real time    0.66
    MIXING:  cpu time    0.07: real time    0.07
    --------------------------------------------
      LOOP:  cpu time    6.50: real time    7.49

 eigenvalue-minimisations  :   120
 total energy-change (2. order) :-0.3586585E-01  (-0.3585929E-01)
 number of electron      30.0000026 magnetization       6.5655702
 augmentation part        0.7702760 magnetization       6.5798790

 Broyden mixing:
  rms(total) = 0.21852E+01    rms(broyden)= 0.21844E+01
  rms(prec ) = 0.25875E+01
  weight for this iteration     100.00

 Free energy of the ion-electron system (eV)
  ---------------------------------------------------
  alpha Z        PSCENC =         4.10512363
  Ewald energy   TEWEN  =      1046.12020431
  -1/2 Hartree   DENC   =     -1683.85644322
  -exchange  EXHF       =         0.00000000
  -V(xc)+E(xc)   XCENC  =        97.94112037
  PAW double counting   =       229.49348703     -236.39350157
  entropy T*S    EENTRO =         0.00000000
  eigenvalues    EBANDS =      -485.78406596
  atomic energy  EATOM  =       957.23250565
  ---------------------------------------------------
  free energy    TOTEN  =       -71.14156975 eV

  energy without entropy =      -71.14156975  energy(sigma->0) =      -71.14156975


--------------------------------------------------------------------------------------------------------




----------------------------------------- Iteration    1(   6)  ---------------------------------------


    POTLOK:  cpu time    3.62: real time    3.62
    SETDIJ:  cpu time    0.13: real time    0.13
     EDDAV:  cpu time    4.72: real time    4.72
       DOS:  cpu time    0.00: real time    0.00
    CHARGE:  cpu time    0.60: real time    0.60
    MIXING:  cpu time    0.07: real time    0.07
    --------------------------------------------
      LOOP:  cpu time    9.15: real time    9.36

 eigenvalue-minimisations  :    94
 total energy-change (2. order) : 0.2956635E+02  (-0.7098714E+01)
 number of electron      30.0000018 magnetization       3.0099434
 augmentation part        0.7632111 magnetization       2.9511962

 Broyden mixing:
  rms(total) = 0.95295E+00    rms(broyden)= 0.95234E+00
  rms(prec ) = 0.12322E+01
  weight for this iteration     100.00

 eigenvalues of (default mixing * dielectric matrix)
  average eigenvalue GAMMA=   0.9762
  0.9762

 Free energy of the ion-electron system (eV)
  ---------------------------------------------------
  alpha Z        PSCENC =         4.10512363
  Ewald energy   TEWEN  =      1046.12020431
  -1/2 Hartree   DENC   =     -1750.55108373
  -exchange  EXHF       =         0.00000000
  -V(xc)+E(xc)   XCENC  =       126.53503416
  PAW double counting   =       341.06365278     -348.70506179
  entropy T*S    EENTRO =         0.00000000
  eigenvalues    EBANDS =      -417.37559664
  atomic energy  EATOM  =       957.23250565
  ---------------------------------------------------
  free energy    TOTEN  =       -41.57522163 eV

  energy without entropy =      -41.57522163  energy(sigma->0) =      -41.57522163


--------------------------------------------------------------------------------------------------------




----------------------------------------- Iteration    1(   7)  ---------------------------------------


    POTLOK:  cpu time    3.71: real time    3.71
    SETDIJ:  cpu time    0.14: real time    0.14
     EDDAV:  cpu time    4.69: real time    4.69
       DOS:  cpu time    0.00: real time    0.00
    CHARGE:  cpu time    0.58: real time    0.58
    MIXING:  cpu time    0.08: real time    0.08
    --------------------------------------------
      LOOP:  cpu time    9.20: real time    9.21

 eigenvalue-minimisations  :    97
 total energy-change (2. order) :-0.2562104E+02  (-0.3186662E+01)
 number of electron      30.0000016 magnetization       1.3484702
 augmentation part        0.7028649 magnetization       1.3210732

 Broyden mixing:
  rms(total) = 0.42807E+00    rms(broyden)= 0.42779E+00
  rms(prec ) = 0.52005E+00
  weight for this iteration     100.00

 eigenvalues of (default mixing * dielectric matrix)
  average eigenvalue GAMMA=   1.0821
  1.0428  1.1213

 Free energy of the ion-electron system (eV)
  ---------------------------------------------------
  alpha Z        PSCENC =         4.10512363
  Ewald energy   TEWEN  =      1046.12020431
  -1/2 Hartree   DENC   =     -1798.50375312
  -exchange  EXHF       =         0.00000000
  -V(xc)+E(xc)   XCENC  =       107.96510698
  PAW double counting   =       417.01961212     -424.99474746
  entropy T*S    EENTRO =         0.00000000
  eigenvalues    EBANDS =      -376.14031730
  atomic energy  EATOM  =       957.23250565
  ---------------------------------------------------
  free energy    TOTEN  =       -67.19626518 eV

  energy without entropy =      -67.19626518  energy(sigma->0) =      -67.19626518


--------------------------------------------------------------------------------------------------------




----------------------------------------- Iteration    1(   8)  ---------------------------------------


    POTLOK:  cpu time    3.68: real time    3.68
    SETDIJ:  cpu time    0.14: real time    0.14
     EDDAV:  cpu time    4.66: real time    4.66
       DOS:  cpu time    0.00: real time    0.00
    CHARGE:  cpu time    0.59: real time    0.59
    MIXING:  cpu time    0.08: real time    0.08
    --------------------------------------------
      LOOP:  cpu time    9.15: real time    9.17

 eigenvalue-minimisations  :    97
 total energy-change (2. order) :-0.4865229E+01  (-0.2104601E+00)
 number of electron      30.0000017 magnetization       0.3406285
 augmentation part        0.6920966 magnetization       0.3253486

 Broyden mixing:
  rms(total) = 0.23346E+00    rms(broyden)= 0.23340E+00
  rms(prec ) = 0.29547E+00
  weight for this iteration     100.00

 eigenvalues of (default mixing * dielectric matrix)
  average eigenvalue GAMMA=   1.1820
  1.7410  1.0604  0.7446

 Free energy of the ion-electron system (eV)
  ---------------------------------------------------
  alpha Z        PSCENC =         4.10512363
  Ewald energy   TEWEN  =      1046.12020431
  -1/2 Hartree   DENC   =     -1810.80001652
  -exchange  EXHF       =         0.00000000
  -V(xc)+E(xc)   XCENC  =       104.28790319
  PAW double counting   =       437.46615060     -445.37416551
  entropy T*S    EENTRO =         0.00000000
  eigenvalues    EBANDS =      -365.09919934
  atomic energy  EATOM  =       957.23250565
  ---------------------------------------------------
  free energy    TOTEN  =       -72.06149399 eV

  energy without entropy =      -72.06149399  energy(sigma->0) =      -72.06149399


--------------------------------------------------------------------------------------------------------




----------------------------------------- Iteration    1(   9)  ---------------------------------------


    POTLOK:  cpu time    3.76: real time    3.76
    SETDIJ:  cpu time    0.14: real time    0.14
     EDDAV:  cpu time    5.15: real time    5.15
       DOS:  cpu time    0.00: real time    0.00
    CHARGE:  cpu time    0.61: real time    0.61
    MIXING:  cpu time    0.09: real time    0.09
    --------------------------------------------
      LOOP:  cpu time    9.74: real time    9.76

 eigenvalue-minimisations  :   110
 total energy-change (2. order) :-0.3560709E+01  (-0.2417456E+00)
 number of electron      30.0000018 magnetization       0.0230373
 augmentation part        0.6798369 magnetization       0.0166543

 Broyden mixing:
  rms(total) = 0.85632E-01    rms(broyden)= 0.85539E-01
  rms(prec ) = 0.12313E+00
  weight for this iteration     100.00

 eigenvalues of (default mixing * dielectric matrix)
  average eigenvalue GAMMA=   1.2886
  2.0466  1.4857  0.9182  0.7040

 Free energy of the ion-electron system (eV)
  ---------------------------------------------------
  alpha Z        PSCENC =         4.10512363
  Ewald energy   TEWEN  =      1046.12020431
  -1/2 Hartree   DENC   =     -1819.36090589
  -exchange  EXHF       =         0.00000000
  -V(xc)+E(xc)   XCENC  =       102.03177716
  PAW double counting   =       448.54054054     -456.38135884
  entropy T*S    EENTRO =         0.00000000
  eigenvalues    EBANDS =      -357.91008908
  atomic energy  EATOM  =       957.23250565
  ---------------------------------------------------
  free energy    TOTEN  =       -75.62220252 eV

  energy without entropy =      -75.62220252  energy(sigma->0) =      -75.62220252


--------------------------------------------------------------------------------------------------------




----------------------------------------- Iteration    1(  10)  ---------------------------------------


    POTLOK:  cpu time    3.74: real time    3.74
    SETDIJ:  cpu time    0.14: real time    0.14
     EDDAV:  cpu time    4.73: real time    4.73
       DOS:  cpu time    0.00: real time    0.00
    CHARGE:  cpu time    0.63: real time    0.63
    MIXING:  cpu time    0.09: real time    0.09
    --------------------------------------------
      LOOP:  cpu time    9.34: real time    9.35

 eigenvalue-minimisations  :    97
 total energy-change (2. order) :-0.3411185E+00  (-0.3907377E-01)
 number of electron      30.0000018 magnetization       0.0118506
 augmentation part        0.6783971 magnetization       0.0114202

 Broyden mixing:
  rms(total) = 0.31017E-01    rms(broyden)= 0.30963E-01
  rms(prec ) = 0.64900E-01
  weight for this iteration     100.00

 eigenvalues of (default mixing * dielectric matrix)
  average eigenvalue GAMMA=   1.2294
  1.9908  1.6988  0.8898  0.8898  0.6778

 Free energy of the ion-electron system (eV)
  ---------------------------------------------------
  alpha Z        PSCENC =         4.10512363
  Ewald energy   TEWEN  =      1046.12020431
  -1/2 Hartree   DENC   =     -1821.81356104
  -exchange  EXHF       =         0.00000000
  -V(xc)+E(xc)   XCENC  =       101.90538596
  PAW double counting   =       449.69742296     -457.48499203
  entropy T*S    EENTRO =         0.00000000
  eigenvalues    EBANDS =      -355.72541050
  atomic energy  EATOM  =       957.23250565
  ---------------------------------------------------
  free energy    TOTEN  =       -75.96332105 eV

  energy without entropy =      -75.96332105  energy(sigma->0) =      -75.96332105


--------------------------------------------------------------------------------------------------------




----------------------------------------- Iteration    1(  11)  ---------------------------------------


    POTLOK:  cpu time    3.67: real time    3.67
    SETDIJ:  cpu time    0.14: real time    0.14
     EDDAV:  cpu time    5.02: real time    5.02
       DOS:  cpu time    0.00: real time    0.00
    CHARGE:  cpu time    0.62: real time    0.62
    MIXING:  cpu time    0.10: real time    0.10
    --------------------------------------------
      LOOP:  cpu time    9.55: real time    9.56

 eigenvalue-minimisations  :   105
 total energy-change (2. order) :-0.8174779E-02  (-0.1388373E-02)
 number of electron      30.0000018 magnetization      -0.0312208
 augmentation part        0.6787111 magnetization      -0.0314957

 Broyden mixing:
  rms(total) = 0.20443E-01    rms(broyden)= 0.20436E-01
  rms(prec ) = 0.46741E-01
  weight for this iteration     100.00

 eigenvalues of (default mixing * dielectric matrix)
  average eigenvalue GAMMA=   1.2890
  2.0626  2.0626  1.3073  0.8875  0.7585  0.6553

 Free energy of the ion-electron system (eV)
  ---------------------------------------------------
  alpha Z        PSCENC =         4.10512363
  Ewald energy   TEWEN  =      1046.12020431
  -1/2 Hartree   DENC   =     -1823.22774395
  -exchange  EXHF       =         0.00000000
  -V(xc)+E(xc)   XCENC  =       101.87706739
  PAW double counting   =       449.05701958     -456.83280112
  entropy T*S    EENTRO =         0.00000000
  eigenvalues    EBANDS =      -354.30287133
  atomic energy  EATOM  =       957.23250565
  ---------------------------------------------------
  free energy    TOTEN  =       -75.97149583 eV

  energy without entropy =      -75.97149583  energy(sigma->0) =      -75.97149583


--------------------------------------------------------------------------------------------------------




----------------------------------------- Iteration    1(  12)  ---------------------------------------


    POTLOK:  cpu time    3.66: real time    3.66
    SETDIJ:  cpu time    0.14: real time    0.14
     EDDAV:  cpu time    4.56: real time    4.56
       DOS:  cpu time    0.00: real time    0.00
    CHARGE:  cpu time    0.62: real time    0.63
    MIXING:  cpu time    0.10: real time    0.10
    --------------------------------------------
      LOOP:  cpu time    9.08: real time    9.14

 eigenvalue-minimisations  :    92
 total energy-change (2. order) : 0.4124109E-03  (-0.6453915E-03)
 number of electron      30.0000018 magnetization      -0.0410501
 augmentation part        0.6787086 magnetization      -0.0406611

 Broyden mixing:
  rms(total) = 0.10538E-01    rms(broyden)= 0.10535E-01
  rms(prec ) = 0.29187E-01
  weight for this iteration     100.00

 eigenvalues of (default mixing * dielectric matrix)
  average eigenvalue GAMMA=   1.3382
  2.5049  2.0822  1.5565  0.9405  0.9405  0.7008  0.6421

 Free energy of the ion-electron system (eV)
  ---------------------------------------------------
  alpha Z        PSCENC =         4.10512363
  Ewald energy   TEWEN  =      1046.12020431
  -1/2 Hartree   DENC   =     -1825.70153981
  -exchange  EXHF       =         0.00000000
  -V(xc)+E(xc)   XCENC  =       101.90020724
  PAW double counting   =       449.35680252     -457.12860649
  entropy T*S    EENTRO =         0.00000000
  eigenvalues    EBANDS =      -351.85578047
  atomic energy  EATOM  =       957.23250565
  ---------------------------------------------------
  free energy    TOTEN  =       -75.97108342 eV

  energy without entropy =      -75.97108342  energy(sigma->0) =      -75.97108342


--------------------------------------------------------------------------------------------------------




----------------------------------------- Iteration    1(  13)  ---------------------------------------


    POTLOK:  cpu time    3.66: real time    3.66
    SETDIJ:  cpu time    0.14: real time    0.14
     EDDAV:  cpu time    4.80: real time    4.81
       DOS:  cpu time    0.00: real time    0.00
    CHARGE:  cpu time    0.63: real time    0.63
    MIXING:  cpu time    0.11: real time    0.11
    --------------------------------------------
      LOOP:  cpu time    9.34: real time    9.36

 eigenvalue-minimisations  :   100
 total energy-change (2. order) :-0.3516549E-03  (-0.3741862E-03)
 number of electron      30.0000018 magnetization       0.0004001
 augmentation part        0.6781322 magnetization       0.0006196

 Broyden mixing:
  rms(total) = 0.86029E-02    rms(broyden)= 0.86023E-02
  rms(prec ) = 0.19947E-01
  weight for this iteration     100.00

 eigenvalues of (default mixing * dielectric matrix)
  average eigenvalue GAMMA=   1.3522
  2.9224  2.0696  1.5617  1.1047  0.9093  0.9093  0.7138  0.6266

 Free energy of the ion-electron system (eV)
  ---------------------------------------------------
  alpha Z        PSCENC =         4.10512363
  Ewald energy   TEWEN  =      1046.12020431
  -1/2 Hartree   DENC   =     -1827.63270665
  -exchange  EXHF       =         0.00000000
  -V(xc)+E(xc)   XCENC  =       101.94080510
  PAW double counting   =       449.62841695     -457.40317644
  entropy T*S    EENTRO =         0.00000000
  eigenvalues    EBANDS =      -349.96260763
  atomic energy  EATOM  =       957.23250565
  ---------------------------------------------------
  free energy    TOTEN  =       -75.97143507 eV

  energy without entropy =      -75.97143507  energy(sigma->0) =      -75.97143507


--------------------------------------------------------------------------------------------------------




----------------------------------------- Iteration    1(  14)  ---------------------------------------


    POTLOK:  cpu time    3.67: real time    3.67
    SETDIJ:  cpu time    0.14: real time    0.14
     EDDAV:  cpu time    5.16: real time    5.16
       DOS:  cpu time    0.00: real time    0.00
    CHARGE:  cpu time    0.63: real time    0.63
    MIXING:  cpu time    0.12: real time    0.12
    --------------------------------------------
      LOOP:  cpu time    9.73: real time   10.54

 eigenvalue-minimisations  :   110
 total energy-change (2. order) :-0.1423753E-01  (-0.4254187E-03)
 number of electron      30.0000018 magnetization       0.0108688
 augmentation part        0.6776439 magnetization       0.0109013

 Broyden mixing:
  rms(total) = 0.52662E-02    rms(broyden)= 0.52651E-02
  rms(prec ) = 0.10190E-01
  weight for this iteration     100.00

 eigenvalues of (default mixing * dielectric matrix)
  average eigenvalue GAMMA=   1.4555
  3.7156  2.1685  1.6129  1.6129  0.9557  0.9557  0.7298  0.7298  0.6188

 Free energy of the ion-electron system (eV)
  ---------------------------------------------------
  alpha Z        PSCENC =         4.10512363
  Ewald energy   TEWEN  =      1046.12020431
  -1/2 Hartree   DENC   =     -1829.44809549
  -exchange  EXHF       =         0.00000000
  -V(xc)+E(xc)   XCENC  =       101.96563665
  PAW double counting   =       448.92887781     -456.70634497
  entropy T*S    EENTRO =         0.00000000
  eigenvalues    EBANDS =      -348.18358019
  atomic energy  EATOM  =       957.23250565
  ---------------------------------------------------
  free energy    TOTEN  =       -75.98567260 eV

  energy without entropy =      -75.98567260  energy(sigma->0) =      -75.98567260


--------------------------------------------------------------------------------------------------------




----------------------------------------- Iteration    1(  15)  ---------------------------------------


    POTLOK:  cpu time    3.65: real time    3.65
    SETDIJ:  cpu time    0.14: real time    0.14
     EDDAV:  cpu time    5.18: real time    5.19
       DOS:  cpu time    0.00: real time    0.00
    CHARGE:  cpu time    0.63: real time    0.63
    MIXING:  cpu time    0.13: real time    0.13
    --------------------------------------------
      LOOP:  cpu time    9.73: real time    9.74

 eigenvalue-minimisations  :   110
 total energy-change (2. order) :-0.3443032E-02  (-0.4074080E-04)
 number of electron      30.0000018 magnetization       0.0046517
 augmentation part        0.6776268 magnetization       0.0046058

 Broyden mixing:
  rms(total) = 0.26810E-02    rms(broyden)= 0.26808E-02
  rms(prec ) = 0.67409E-02
  weight for this iteration     100.00

 eigenvalues of (default mixing * dielectric matrix)
  average eigenvalue GAMMA=   1.6308
  5.3690  2.3819  1.8116  1.8116  1.0336  0.9350  0.9350  0.7206  0.6892  0.6201

 Free energy of the ion-electron system (eV)
  ---------------------------------------------------
  alpha Z        PSCENC =         4.10512363
  Ewald energy   TEWEN  =      1046.12020431
  -1/2 Hartree   DENC   =     -1829.76199890
  -exchange  EXHF       =         0.00000000
  -V(xc)+E(xc)   XCENC  =       101.96597467
  PAW double counting   =       448.52909804     -456.30523404
  entropy T*S    EENTRO =         0.00000000
  eigenvalues    EBANDS =      -347.87478900
  atomic energy  EATOM  =       957.23250565
  ---------------------------------------------------
  free energy    TOTEN  =       -75.98911563 eV

  energy without entropy =      -75.98911563  energy(sigma->0) =      -75.98911563


--------------------------------------------------------------------------------------------------------




----------------------------------------- Iteration    1(  16)  ---------------------------------------


    POTLOK:  cpu time    3.64: real time    3.64
    SETDIJ:  cpu time    0.14: real time    0.14
     EDDAV:  cpu time    4.54: real time    4.54
       DOS:  cpu time    0.00: real time    0.00
    CHARGE:  cpu time    0.60: real time    0.60
    MIXING:  cpu time    0.13: real time    0.13
    --------------------------------------------
      LOOP:  cpu time    9.06: real time    9.09

 eigenvalue-minimisations  :    94
 total energy-change (2. order) :-0.4079843E-02  (-0.4178300E-04)
 number of electron      30.0000018 magnetization      -0.0017240
 augmentation part        0.6776284 magnetization      -0.0017878

 Broyden mixing:
  rms(total) = 0.17911E-02    rms(broyden)= 0.17910E-02
  rms(prec ) = 0.42960E-02
  weight for this iteration     100.00

 eigenvalues of (default mixing * dielectric matrix)
  average eigenvalue GAMMA=   1.6693
  5.9497  2.5288  1.9426  1.6373  1.4654  0.9439  0.9439  0.9316  0.7266  0.6712
  0.6219

 Free energy of the ion-electron system (eV)
  ---------------------------------------------------
  alpha Z        PSCENC =         4.10512363
  Ewald energy   TEWEN  =      1046.12020431
  -1/2 Hartree   DENC   =     -1829.90744793
  -exchange  EXHF       =         0.00000000
  -V(xc)+E(xc)   XCENC  =       101.96553110
  PAW double counting   =       448.42442030     -456.19908653
  entropy T*S    EENTRO =         0.00000000
  eigenvalues    EBANDS =      -347.73444601
  atomic energy  EATOM  =       957.23250565
  ---------------------------------------------------
  free energy    TOTEN  =       -75.99319547 eV

  energy without entropy =      -75.99319547  energy(sigma->0) =      -75.99319547


--------------------------------------------------------------------------------------------------------




----------------------------------------- Iteration    1(  17)  ---------------------------------------


    POTLOK:  cpu time    3.63: real time    3.63
    SETDIJ:  cpu time    0.14: real time    0.14
     EDDAV:  cpu time    4.83: real time    4.83
       DOS:  cpu time    0.00: real time    0.00
    CHARGE:  cpu time    0.60: real time    0.60
    MIXING:  cpu time    0.14: real time    0.14
    --------------------------------------------
      LOOP:  cpu time    9.34: real time    9.36

 eigenvalue-minimisations  :   102
 total energy-change (2. order) :-0.2942798E-02  (-0.4503437E-04)
 number of electron      30.0000018 magnetization      -0.0007948
 augmentation part        0.6775638 magnetization      -0.0007977

 Broyden mixing:
  rms(total) = 0.13213E-02    rms(broyden)= 0.13211E-02
  rms(prec ) = 0.22458E-02
  weight for this iteration     100.00

 eigenvalues of (default mixing * dielectric matrix)
  average eigenvalue GAMMA=   1.7408
  6.4556  2.9700  2.1958  1.8022  1.8022  1.0676  0.9248  0.9248  0.7452  0.7253
  0.6231  0.6533

 Free energy of the ion-electron system (eV)
  ---------------------------------------------------
  alpha Z        PSCENC =         4.10512363
  Ewald energy   TEWEN  =      1046.12020431
  -1/2 Hartree   DENC   =     -1829.96854986
  -exchange  EXHF       =         0.00000000
  -V(xc)+E(xc)   XCENC  =       101.96252217
  PAW double counting   =       448.48904539     -456.26363319
  entropy T*S    EENTRO =         0.00000000
  eigenvalues    EBANDS =      -347.67335639
  atomic energy  EATOM  =       957.23250565
  ---------------------------------------------------
  free energy    TOTEN  =       -75.99613827 eV

  energy without entropy =      -75.99613827  energy(sigma->0) =      -75.99613827


--------------------------------------------------------------------------------------------------------




----------------------------------------- Iteration    1(  18)  ---------------------------------------


    POTLOK:  cpu time    3.64: real time    3.64
    SETDIJ:  cpu time    0.14: real time    0.14
     EDDAV:  cpu time    4.73: real time    4.73
       DOS:  cpu time    0.00: real time    0.00
    CHARGE:  cpu time    0.60: real time    0.60
    MIXING:  cpu time    0.15: real time    0.15
    --------------------------------------------
      LOOP:  cpu time    9.25: real time    9.27

 eigenvalue-minimisations  :    99
 total energy-change (2. order) :-0.9288660E-03  (-0.6578037E-05)
 number of electron      30.0000018 magnetization      -0.0001037
 augmentation part        0.6775623 magnetization      -0.0001003

 Broyden mixing:
  rms(total) = 0.66291E-03    rms(broyden)= 0.66287E-03
  rms(prec ) = 0.12135E-02
  weight for this iteration     100.00

 eigenvalues of (default mixing * dielectric matrix)
  average eigenvalue GAMMA=   1.8292
  7.1486  3.6616  2.3808  1.9649  1.6943  1.2470  1.0724  0.9491  0.9491  0.7351
  0.7099  0.6217  0.6455

 Free energy of the ion-electron system (eV)
  ---------------------------------------------------
  alpha Z        PSCENC =         4.10512363
  Ewald energy   TEWEN  =      1046.12020431
  -1/2 Hartree   DENC   =     -1829.87180038
  -exchange  EXHF       =         0.00000000
  -V(xc)+E(xc)   XCENC  =       101.95704661
  PAW double counting   =       448.51088398     -456.28560288
  entropy T*S    EENTRO =         0.00000000
  eigenvalues    EBANDS =      -347.76542806
  atomic energy  EATOM  =       957.23250565
  ---------------------------------------------------
  free energy    TOTEN  =       -75.99706714 eV

  energy without entropy =      -75.99706714  energy(sigma->0) =      -75.99706714


--------------------------------------------------------------------------------------------------------




----------------------------------------- Iteration    1(  19)  ---------------------------------------


    POTLOK:  cpu time    3.69: real time    3.69
    SETDIJ:  cpu time    0.14: real time    0.14
     EDDAV:  cpu time    5.00: real time    5.00
       DOS:  cpu time    0.00: real time    0.00
    CHARGE:  cpu time    0.61: real time    0.61
    MIXING:  cpu time    0.18: real time    0.18
    --------------------------------------------
      LOOP:  cpu time    9.63: real time    9.64

 eigenvalue-minimisations  :   102
 total energy-change (2. order) :-0.3410702E-03  (-0.4989917E-05)
 number of electron      30.0000018 magnetization      -0.0002711
 augmentation part        0.6776113 magnetization      -0.0002635

 Broyden mixing:
  rms(total) = 0.43211E-03    rms(broyden)= 0.43189E-03
  rms(prec ) = 0.62347E-03
  weight for this iteration     100.00

 eigenvalues of (default mixing * dielectric matrix)
  average eigenvalue GAMMA=   1.8851
  7.6490  4.4606  2.4642  1.9910  1.6897  1.6897  1.0632  0.9266  0.9266  0.8365
  0.7367  0.6952  0.6200  0.6423

 Free energy of the ion-electron system (eV)
  ---------------------------------------------------
  alpha Z        PSCENC =         4.10512363
  Ewald energy   TEWEN  =      1046.12020431
  -1/2 Hartree   DENC   =     -1829.76464674
  -exchange  EXHF       =         0.00000000
  -V(xc)+E(xc)   XCENC  =       101.95278751
  PAW double counting   =       448.51845754     -456.29296768
  entropy T*S    EENTRO =         0.00000000
  eigenvalues    EBANDS =      -347.86887243
  atomic energy  EATOM  =       957.23250565
  ---------------------------------------------------
  free energy    TOTEN  =       -75.99740821 eV

  energy without entropy =      -75.99740821  energy(sigma->0) =      -75.99740821


--------------------------------------------------------------------------------------------------------




----------------------------------------- Iteration    1(  20)  ---------------------------------------


    POTLOK:  cpu time    3.69: real time    3.69
    SETDIJ:  cpu time    0.14: real time    0.14
     EDDAV:  cpu time    4.63: real time    4.63
       DOS:  cpu time    0.00: real time    0.00
    --------------------------------------------
      LOOP:  cpu time    8.46: real time    8.48

 eigenvalue-minimisations  :    91
 total energy-change (2. order) :-0.9590528E-04  (-0.5379018E-06)
 number of electron      30.0000018 magnetization      -0.0002711
 augmentation part        0.6776113 magnetization      -0.0002635

 Free energy of the ion-electron system (eV)
  ---------------------------------------------------
  alpha Z        PSCENC =         4.10512363
  Ewald energy   TEWEN  =      1046.12020431
  -1/2 Hartree   DENC   =     -1829.79449691
  -exchange  EXHF       =         0.00000000
  -V(xc)+E(xc)   XCENC  =       101.95392334
  PAW double counting   =       448.54248844     -456.31718927
  entropy T*S    EENTRO =         0.00000000
  eigenvalues    EBANDS =      -347.84006331
  atomic energy  EATOM  =       957.23250565
  ---------------------------------------------------
  free energy    TOTEN  =       -75.99750411 eV

  energy without entropy =      -75.99750411  energy(sigma->0) =      -75.99750411


--------------------------------------------------------------------------------------------------------




 average (electrostatic) potential at core
  the test charge radii are     0.5201  0.6991
  (the norm of the test charge is              1.0000)
       1 -41.6042       2 -41.6010       3 -41.6010       4 -41.6042       5 -41.6010
       6 -41.6010       7 -58.3494       8 -58.3493       9 -58.3493      10 -58.3494
      11 -58.3493      12 -58.3493
 
 
 
 E-fermi :  -4.8674     XC(G=0):  -1.5633     alpha+bet : -0.7680


 spin component 1

 k-point   1 :       0.0000    0.0000    0.0000
  band No.  band energies     occupation 
      1     -20.7473      1.00000
      2     -17.9567      1.00000
      3     -17.9567      1.00000
      4     -14.3317      1.00000
      5     -14.3305      1.00000
      6     -12.3909      1.00000
      7     -10.6860      1.00000
      8     -10.3930      1.00000
      9      -9.7101      1.00000
     10      -9.7095      1.00000
     11      -8.5853      1.00000
     12      -7.7162      1.00000
     13      -7.7131      1.00000
     14      -5.8468      1.00000
     15      -5.8468      1.00000
     16      -0.7261      0.00000
     17      -0.7169      0.00000
     18      -0.4176      0.00000
     19       0.8162      0.00000
     20       0.9899      0.00000
     21       1.0406      0.00000

 spin component 2

 k-point   1 :       0.0000    0.0000    0.0000
  band No.  band energies     occupation 
      1     -20.7471      1.00000
      2     -17.9566      1.00000
      3     -17.9566      1.00000
      4     -14.3316      1.00000
      5     -14.3305      1.00000
      6     -12.3908      1.00000
      7     -10.6860      1.00000
      8     -10.3929      1.00000
      9      -9.7100      1.00000
     10      -9.7094      1.00000
     11      -8.5852      1.00000
     12      -7.7162      1.00000
     13      -7.7130      1.00000
     14      -5.8468      1.00000
     15      -5.8467      1.00000
     16      -0.7261      0.00000
     17      -0.7170      0.00000
     18      -0.4278      0.00000
     19       0.8118      0.00000
     20       0.9761      0.00000
     21       1.0335      0.00000


--------------------------------------------------------------------------------------------------------


 soft charge-density along one line, spin component           1
         0         1         2         3         4         5         6         7         8         9
 total charge-density along one line
 
 soft charge-density along one line, spin component           2
         0         1         2         3         4         5         6         7         8         9
 total charge-density along one line
 
 pseudopotential strength for first ion, spin component:           1
 -2.342  -0.011   0.002   0.000   0.000
 -0.011   0.049   0.002   0.000   0.000
  0.002   0.002  -0.333   0.000   0.000
  0.000   0.000   0.000  -0.338   0.000
  0.000   0.000   0.000   0.000  -0.338
 pseudopotential strength for first ion, spin component:           2
 -2.342  -0.011   0.002   0.000   0.000
 -0.011   0.049   0.002   0.000   0.000
  0.002   0.002  -0.333   0.000   0.000
  0.000   0.000   0.000  -0.338   0.000
  0.000   0.000   0.000   0.000  -0.338
 total augmentation occupancy for first ion, spin component:           1
  1.754  -0.628  -0.301   0.000   0.000
 -0.628   0.276   0.120   0.000   0.000
 -0.301   0.120   0.055   0.000   0.000
  0.000   0.000   0.000   0.010   0.000
  0.000   0.000   0.000   0.000   0.007
 total augmentation occupancy for first ion, spin component:           2
  0.000   0.000   0.000   0.000   0.000
  0.000   0.000   0.000   0.000   0.000
  0.000   0.000   0.000   0.000   0.000
  0.000   0.000   0.000   0.000   0.000
  0.000   0.000   0.000   0.000   0.000


------------------------ aborting loop because EDIFF is reached ----------------------------------------


    CHARGE:  cpu time    0.62: real time    0.62
    FORLOC:  cpu time    0.25: real time    0.25
    FORNL :  cpu time    1.26: real time    1.26
    STRESS:  cpu time    2.42: real time    2.42
    FORHAR:  cpu time    0.61: real time    0.61
    MIXING:  cpu time    0.18: real time    0.18

  FORCE on cell =-STRESS in cart. coord.  units (eV):
  Direction    XX          YY          ZZ          XY          YZ          ZX
  --------------------------------------------------------------------------------------
  Alpha Z     4.10512     4.10512     4.10512
  Ewald     844.16693   844.92703  -642.97454     0.00000     0.00000     0.00000
  Hartree   904.96333   905.65824    19.21655     0.00000     0.00000     0.00000
  E(xc)    -105.25555  -105.25573  -108.69215     0.00000     0.00000     0.00000
  Local   -2022.30658 -2023.73060   291.40532     0.00000     0.00000     0.00000
  n-local   -39.06930   -39.05937   -35.11637     0.00000     0.00000     0.00000
  augment    -1.49073    -1.49376    -1.23370     0.00000     0.00000     0.00000
  Kinetic   413.21732   413.15151   469.93096    -0.00001     0.00000     0.00000
  Fock        0.00000     0.00000     0.00000     0.00000     0.00000     0.00000
  -------------------------------------------------------------------------------------
  Total      -1.66945    -1.69755    -3.35880     0.00000     0.00000     0.00000
  in kB      -2.67476    -2.71978    -5.38140     0.00000     0.00000     0.00000
  external pressure =       -3.59 kB  Pullay stress =        0.00 kB


 VOLUME and BASIS-vectors are now :
 -----------------------------------------------------------------------------
  energy-cutoff  :      350.00
  volume of cell :     1000.00
      direct lattice vectors                 reciprocal lattice vectors
    10.000000000  0.000000000  0.000000000     0.100000000  0.000000000  0.000000000
     0.000000000 10.000000000  0.000000000     0.000000000  0.100000000  0.000000000
     0.000000000  0.000000000 10.000000000     0.000000000  0.000000000  0.100000000

  length of vectors
    10.000000000 10.000000000 10.000000000     0.100000000  0.100000000  0.100000000


 FORCES acting on ions
    electron-ion (+dipol)            ewald-force                    non-local-force                 convergence-correction
 -----------------------------------------------------------------------------------------------
   0.216E-13 -.750E+02 0.130E-06   -.244E-14 0.810E+02 -.124E-17   0.000E+00 -.575E+01 -.414E-24   -.111E-13 0.861E-03 -.465E-14
   -.655E+02 -.384E+02 0.128E-06   0.707E+02 0.414E+02 -.437E-17   -.499E+01 -.288E+01 -.827E-24   0.743E-03 0.391E-03 -.186E-14
   -.655E+02 0.384E+02 -.102E-06   0.707E+02 -.414E+02 -.525E-17   -.499E+01 0.288E+01 0.827E-24   0.743E-03 -.391E-03 -.885E-14
   0.214E-13 0.750E+02 -.130E-06   -.148E-14 -.810E+02 -.254E-17   0.000E+00 0.575E+01 0.207E-24   -.109E-13 -.861E-03 -.653E-14
   0.655E+02 0.384E+02 -.128E-06   -.707E+02 -.414E+02 -.178E-17   0.499E+01 0.288E+01 0.362E-24   -.743E-03 -.391E-03 -.476E-14
   0.655E+02 -.384E+02 0.102E-06   -.707E+02 0.414E+02 -.415E-17   0.499E+01 -.288E+01 -.414E-24   -.743E-03 0.391E-03 0.161E-14
   0.507E-13 -.169E+03 -.151E-05   0.735E-13 0.170E+03 -.117E-16   0.106E-21 -.983E+00 0.000E+00   -.651E-13 0.296E-02 0.398E-14
   -.146E+03 -.849E+02 -.551E-05   0.147E+03 0.853E+02 -.123E-16   -.853E+00 -.494E+00 -.106E-21   0.267E-02 0.156E-02 0.547E-14
   -.146E+03 0.849E+02 0.133E-05   0.147E+03 -.853E+02 -.126E-16   -.853E+00 0.494E+00 0.000E+00   0.267E-02 -.156E-02 -.227E-13
   0.543E-13 0.169E+03 0.151E-05   -.433E-14 -.170E+03 0.591E-18   -.106E-21 0.983E+00 0.000E+00   -.649E-13 -.296E-02 -.262E-13
   0.146E+03 0.849E+02 0.551E-05   -.147E+03 -.853E+02 0.594E-17   0.853E+00 0.494E+00 0.106E-21   -.267E-02 -.156E-02 -.191E-13
   0.146E+03 -.849E+02 -.133E-05   -.147E+03 0.853E+02 -.244E-16   0.853E+00 -.494E+00 0.000E+00   -.267E-02 0.156E-02 0.798E-14
 -----------------------------------------------------------------------------------------------
   0.881E-12 -.426E-12 0.335E-11   -.568E-13 -.711E-13 -.738E-16   -.111E-14 0.105E-14 -.258E-24   -.352E-12 -.377E-12 -.756E-13
 
 
 POSITION                                       TOTAL-FORCE (eV/Angst)
 -----------------------------------------------------------------------------------
      5.00000      7.48236      5.00000         0.000000      0.240461      0.000000
      7.14979      6.24118      5.00000         0.203354      0.115369      0.000000
      7.14979      3.75882      5.00000         0.203354     -0.115369      0.000000
      5.00000      2.51764      5.00000         0.000000     -0.240461      0.000000
      2.85021      3.75882      5.00000        -0.203354     -0.115369      0.000000
      2.85021      6.24118      5.00000        -0.203354      0.115369      0.000000
      5.00000      6.39525      5.00000         0.000000     -0.101076      0.000000
      6.20832      5.69762      5.00000        -0.081286     -0.045750      0.000000
      6.20832      4.30238      5.00000        -0.081286      0.045750      0.000000
      5.00000      3.60475      5.00000         0.000000      0.101076      0.000000
      3.79168      4.30238      5.00000         0.081286      0.045750      0.000000
      3.79168      5.69762      5.00000         0.081286     -0.045750      0.000000
 -----------------------------------------------------------------------------------
    total drift:                                0.000000      0.000000      0.000000


--------------------------------------------------------------------------------------------------------



  FREE ENERGIE OF THE ION-ELECTRON SYSTEM (eV)
  ---------------------------------------------------
  free  energy   TOTEN  =       -75.997504 eV

  energy  without entropy=      -75.997504  energy(sigma->0) =      -75.997504
 


--------------------------------------------------------------------------------------------------------


    POTLOK:  cpu time    3.83: real time    3.83


--------------------------------------------------------------------------------------------------------




--------------------------------------------------------------------------------------------------------


    WAVPRE:  cpu time    0.44: real time    0.45
    FEWALD:  cpu time    0.00: real time    0.00
    ORTHCH:  cpu time    0.29: real time    0.30
     LOOP+:  cpu time  184.14: real time  187.74


----------------------------------------- Iteration    2(   1)  ---------------------------------------


    POTLOK:  cpu time    4.23: real time    4.23
    SETDIJ:  cpu time    0.15: real time    0.15
     EDDAV:  cpu time    5.49: real time    5.49
       DOS:  cpu time    0.00: real time    0.00
    CHARGE:  cpu time    0.81: real time    0.81
    MIXING:  cpu time    0.09: real time    0.09
    --------------------------------------------
      LOOP:  cpu time   10.77: real time   10.78

 eigenvalue-minimisations  :    84
 total energy-change (2. order) : 0.9229233E-02  (-0.8451837E-01)
 number of electron      30.0000022 magnetization      -0.0000862
 augmentation part        0.6728327 magnetization      -0.0000837

 Broyden mixing:
  rms(total) = 0.29411E-01    rms(broyden)= 0.29377E-01
  rms(prec ) = 0.35282E-01
  weight for this iteration     100.00

 Free energy of the ion-electron system (eV)
  ---------------------------------------------------
  alpha Z        PSCENC =         4.10512363
  Ewald energy   TEWEN  =      1045.35410742
  -1/2 Hartree   DENC   =     -1830.23959950
  -exchange  EXHF       =         0.00000000
  -V(xc)+E(xc)   XCENC  =       101.88007343
  PAW double counting   =       448.55296393     -456.32779567
  entropy T*S    EENTRO =         0.00000000
  eigenvalues    EBANDS =      -346.54555787
  atomic energy  EATOM  =       957.23250565
  ---------------------------------------------------
  free energy    TOTEN  =       -75.98817897 eV

  energy without entropy =      -75.98817897  energy(sigma->0) =      -75.98817897


--------------------------------------------------------------------------------------------------------




----------------------------------------- Iteration    2(   2)  ---------------------------------------


    POTLOK:  cpu time    3.98: real time    3.98
    SETDIJ:  cpu time    0.13: real time    0.13
     EDDAV:  cpu time    4.89: real time    4.89
       DOS:  cpu time    0.00: real time    0.00
    CHARGE:  cpu time    0.68: real time    0.68
    MIXING:  cpu time    0.08: real time    0.08
    --------------------------------------------
      LOOP:  cpu time    9.76: real time    9.77

 eigenvalue-minimisations  :    99
 total energy-change (2. order) :-0.8215009E-03  (-0.2354562E-02)
 number of electron      30.0000022 magnetization       0.0000124
 augmentation part        0.6740098 magnetization       0.0000124

 Broyden mixing:
  rms(total) = 0.21615E-01    rms(broyden)= 0.21607E-01
  rms(prec ) = 0.25752E-01
  weight for this iteration     100.00

 eigenvalues of (default mixing * dielectric matrix)
  average eigenvalue GAMMA=   2.5518
  2.5518

 Free energy of the ion-electron system (eV)
  ---------------------------------------------------
  alpha Z        PSCENC =         4.10512363
  Ewald energy   TEWEN  =      1045.35410742
  -1/2 Hartree   DENC   =     -1829.91726758
  -exchange  EXHF       =         0.00000000
  -V(xc)+E(xc)   XCENC  =       101.85134782
  PAW double counting   =       447.44154268     -455.21049752
  entropy T*S    EENTRO =         0.00000000
  eigenvalues    EBANDS =      -346.84586257
  atomic energy  EATOM  =       957.23250565
  ---------------------------------------------------
  free energy    TOTEN  =       -75.98900047 eV

  energy without entropy =      -75.98900047  energy(sigma->0) =      -75.98900047


--------------------------------------------------------------------------------------------------------




----------------------------------------- Iteration    2(   3)  ---------------------------------------


    POTLOK:  cpu time    3.74: real time    3.74
    SETDIJ:  cpu time    0.14: real time    0.14
     EDDAV:  cpu time    4.73: real time    4.73
       DOS:  cpu time    0.00: real time    0.00
    CHARGE:  cpu time    0.61: real time    0.61
    MIXING:  cpu time    0.08: real time    0.08
    --------------------------------------------
      LOOP:  cpu time    9.30: real time    9.31

 eigenvalue-minimisations  :    94
 total energy-change (2. order) : 0.7946947E-03  (-0.3857405E-03)
 number of electron      30.0000022 magnetization      -0.0000043
 augmentation part        0.6745931 magnetization      -0.0000029

 Broyden mixing:
  rms(total) = 0.37639E-02    rms(broyden)= 0.37601E-02
  rms(prec ) = 0.53873E-02
  weight for this iteration     100.00

 eigenvalues of (default mixing * dielectric matrix)
  average eigenvalue GAMMA=   1.5980
  1.0410  2.1550

 Free energy of the ion-electron system (eV)
  ---------------------------------------------------
  alpha Z        PSCENC =         4.10512363
  Ewald energy   TEWEN  =      1045.35410742
  -1/2 Hartree   DENC   =     -1829.29619952
  -exchange  EXHF       =         0.00000000
  -V(xc)+E(xc)   XCENC  =       101.80627645
  PAW double counting   =       445.85174416     -453.61480599
  entropy T*S    EENTRO =         0.00000000
  eigenvalues    EBANDS =      -347.42695758
  atomic energy  EATOM  =       957.23250565
  ---------------------------------------------------
  free energy    TOTEN  =       -75.98820578 eV

  energy without entropy =      -75.98820578  energy(sigma->0) =      -75.98820578


--------------------------------------------------------------------------------------------------------




----------------------------------------- Iteration    2(   4)  ---------------------------------------


    POTLOK:  cpu time    4.20: real time    4.20
    SETDIJ:  cpu time    0.15: real time    0.15
     EDDAV:  cpu time    5.72: real time    5.72
       DOS:  cpu time    0.00: real time    0.00
    --------------------------------------------
      LOOP:  cpu time   10.07: real time   10.12

 eigenvalue-minimisations  :    94
 total energy-change (2. order) : 0.1800510E-04  (-0.6378879E-04)
 number of electron      30.0000022 magnetization      -0.0000043
 augmentation part        0.6745931 magnetization      -0.0000029

 Free energy of the ion-electron system (eV)
  ---------------------------------------------------
  alpha Z        PSCENC =         4.10512363
  Ewald energy   TEWEN  =      1045.35410742
  -1/2 Hartree   DENC   =     -1829.37550259
  -exchange  EXHF       =         0.00000000
  -V(xc)+E(xc)   XCENC  =       101.81526228
  PAW double counting   =       446.16598380     -453.93091419
  entropy T*S    EENTRO =         0.00000000
  eigenvalues    EBANDS =      -347.35475378
  atomic energy  EATOM  =       957.23250565
  ---------------------------------------------------
  free energy    TOTEN  =       -75.98818777 eV

  energy without entropy =      -75.98818777  energy(sigma->0) =      -75.98818777


--------------------------------------------------------------------------------------------------------




 average (electrostatic) potential at core
  the test charge radii are     0.5201  0.6991
  (the norm of the test charge is              1.0000)
       1 -41.4703       2 -41.4739       3 -41.4739       4 -41.4703       5 -41.4739
       6 -41.4739       7 -58.3656       8 -58.3654       9 -58.3654      10 -58.3656
      11 -58.3654      12 -58.3654
 
 
 
 E-fermi :  -4.8909     XC(G=0):  -1.5356     alpha+bet : -0.7680


 spin component 1

 k-point   1 :       0.0000    0.0000    0.0000
  band No.  band energies     occupation 
      1     -20.8055      1.00000
      2     -17.9581      1.00000
      3     -17.9578      1.00000
      4     -14.2920      1.00000
      5     -14.2898      1.00000
      6     -12.3452      1.00000
      7     -10.5469      1.00000
      8     -10.4316      1.00000
      9      -9.6719      1.00000
     10      -9.6687      1.00000
     11      -8.6303      1.00000
     12      -7.6763      1.00000
     13      -7.6734      1.00000
     14      -5.8654      1.00000
     15      -5.8645      1.00000
     16      -0.7001      0.00000
     17      -0.6935      0.00000
     18      -0.4335      0.00000
     19       0.8205      0.00000
     20       0.9653      0.00000
     21       1.0321      0.00000

 spin component 2

 k-point   1 :       0.0000    0.0000    0.0000
  band No.  band energies     occupation 
      1     -20.8055      1.00000
      2     -17.9580      1.00000
      3     -17.9578      1.00000
      4     -14.2920      1.00000
      5     -14.2898      1.00000
      6     -12.3452      1.00000
      7     -10.5469      1.00000
      8     -10.4315      1.00000
      9      -9.6719      1.00000
     10      -9.6687      1.00000
     11      -8.6303      1.00000
     12      -7.6762      1.00000
     13      -7.6734      1.00000
     14      -5.8654      1.00000
     15      -5.8645      1.00000
     16      -0.7000      0.00000
     17      -0.6935      0.00000
     18      -0.4336      0.00000
     19       0.8208      0.00000
     20       0.9660      0.00000
     21       1.0324      0.00000


--------------------------------------------------------------------------------------------------------


 soft charge-density along one line, spin component           1
         0         1         2         3         4         5         6         7         8         9
 total charge-density along one line
 
 soft charge-density along one line, spin component           2
         0         1         2         3         4         5         6         7         8         9
 total charge-density along one line
 
 pseudopotential strength for first ion, spin component:           1
 -2.341  -0.011   0.002   0.000   0.000
 -0.011   0.049   0.002   0.000   0.000
  0.002   0.002  -0.334   0.000   0.000
  0.000   0.000   0.000  -0.339   0.000
  0.000   0.000   0.000   0.000  -0.339
 pseudopotential strength for first ion, spin component:           2
 -2.341  -0.011   0.002   0.000   0.000
 -0.011   0.049   0.002   0.000   0.000
  0.002   0.002  -0.334   0.000   0.000
  0.000   0.000   0.000  -0.339   0.000
  0.000   0.000   0.000   0.000  -0.339
 total augmentation occupancy for first ion, spin component:           1
  1.718  -0.618  -0.287   0.000   0.000
 -0.618   0.272   0.115   0.000   0.000
 -0.287   0.115   0.051   0.000   0.000
  0.000   0.000   0.000   0.009   0.000
  0.000   0.000   0.000   0.000   0.006
 total augmentation occupancy for first ion, spin component:           2
  0.000   0.000   0.000   0.000   0.000
  0.000   0.000   0.000   0.000   0.000
  0.000   0.000   0.000   0.000   0.000
  0.000   0.000   0.000   0.000   0.000
  0.000   0.000   0.000   0.000   0.000


------------------------ aborting loop because EDIFF is reached ----------------------------------------


    CHARGE:  cpu time    0.73: real time    0.73
    FORLOC:  cpu time    0.27: real time    0.27
    FORNL :  cpu time    1.32: real time    1.32
    STRESS:  cpu time    2.93: real time    2.93
    FORHAR:  cpu time    0.69: real time    0.69
    MIXING:  cpu time    0.09: real time    0.09

  FORCE on cell =-STRESS in cart. coord.  units (eV):
  Direction    XX          YY          ZZ          XY          YZ          ZX
  --------------------------------------------------------------------------------------
  Alpha Z     4.10512     4.10512     4.10512
  Ewald     844.00726   844.30737  -642.96136     0.00000     0.00000     0.00000
  Hartree   904.77975   905.39759    19.07298     0.00000     0.00000     0.00000
  E(xc)    -105.09301  -105.09429  -108.54182     0.00000     0.00000     0.00000
  Local   -2022.23311 -2023.21793   291.61431     0.00000     0.00000     0.00000
  n-local   -38.59095   -38.58076   -34.83092     0.00001     0.00000     0.00000
  augment    -1.49645    -1.49895    -1.24607     0.00000     0.00000     0.00000
  Kinetic   412.09972   412.08252   469.42670     0.00002     0.00000     0.00000
  Fock        0.00000     0.00000     0.00000     0.00000     0.00000     0.00000
  -------------------------------------------------------------------------------------
  Total      -2.42167    -2.49934    -3.36105     0.00000     0.00000     0.00000
  in kB      -3.87995    -4.00438    -5.38499     0.00000     0.00000     0.00000
  external pressure =       -4.42 kB  Pullay stress =        0.00 kB


 VOLUME and BASIS-vectors are now :
 -----------------------------------------------------------------------------
  energy-cutoff  :      350.00
  volume of cell :     1000.00
      direct lattice vectors                 reciprocal lattice vectors
    10.000000000  0.000000000  0.000000000     0.100000000  0.000000000  0.000000000
     0.000000000 10.000000000  0.000000000     0.000000000  0.100000000  0.000000000
     0.000000000  0.000000000 10.000000000     0.000000000  0.000000000  0.100000000

  length of vectors
    10.000000000 10.000000000 10.000000000     0.100000000  0.100000000  0.100000000


 FORCES acting on ions
    electron-ion (+dipol)            ewald-force                    non-local-force                 convergence-correction
 -----------------------------------------------------------------------------------------------
   0.219E-13 -.741E+02 0.484E-07   0.674E-14 0.793E+02 0.730E-17   0.165E-23 -.551E+01 0.000E+00   0.654E-14 -.223E-02 0.126E-13
   -.648E+02 -.379E+02 0.114E-06   0.693E+02 0.406E+02 0.129E-17   -.478E+01 -.276E+01 0.000E+00   -.194E-02 -.124E-02 -.375E-13
   -.648E+02 0.379E+02 0.286E-07   0.693E+02 -.406E+02 -.113E-17   -.478E+01 0.276E+01 0.000E+00   -.194E-02 0.124E-02 -.322E-13
   0.214E-13 0.741E+02 -.484E-07   0.425E-14 -.793E+02 0.715E-17   -.165E-23 0.551E+01 0.000E+00   -.137E-13 0.223E-02 0.270E-13
   0.648E+02 0.379E+02 -.114E-06   -.693E+02 -.406E+02 -.205E-17   0.478E+01 0.276E+01 0.103E-24   0.194E-02 0.124E-02 0.678E-13
   0.648E+02 -.379E+02 -.286E-07   -.693E+02 0.406E+02 -.129E-17   0.478E+01 -.276E+01 0.000E+00   0.194E-02 -.124E-02 0.616E-13
   0.525E-13 -.171E+03 -.108E-05   0.745E-13 0.172E+03 -.399E-16   0.424E-21 -.688E+00 0.000E+00   0.177E-13 -.228E-01 0.990E-13
   -.148E+03 -.860E+02 -.441E-05   0.149E+03 0.867E+02 -.168E-16   -.613E+00 -.359E+00 0.132E-22   -.193E-01 -.116E-01 -.992E-13
   -.148E+03 0.860E+02 0.202E-05   0.149E+03 -.867E+02 -.575E-16   -.613E+00 0.359E+00 -.199E-22   -.193E-01 0.116E-01 -.727E-13
   0.517E-13 0.171E+03 0.108E-05   0.355E-13 -.172E+03 0.341E-16   -.424E-21 0.688E+00 0.120E-22   -.745E-13 0.228E-01 0.170E-12
   0.148E+03 0.860E+02 0.441E-05   -.149E+03 -.867E+02 -.333E-16   0.613E+00 0.359E+00 -.132E-22   0.193E-01 0.116E-01 0.369E-12
   0.148E+03 -.860E+02 -.202E-05   -.149E+03 0.867E+02 0.283E-16   0.613E+00 -.359E+00 0.265E-22   0.193E-01 -.116E-01 0.339E-12
 -----------------------------------------------------------------------------------------------
   0.654E-12 -.398E-12 -.636E-12   0.000E+00 -.426E-13 -.738E-16   -.222E-15 -.888E-15 0.187E-22   -.189E-12 -.512E-12 0.904E-12
 
 
[...]
 -----------------------------------------------------------------------------
  energy-cutoff  :      350.00
  volume of cell :     1000.00
      direct lattice vectors                 reciprocal lattice vectors
    10.000000000  0.000000000  0.000000000     0.100000000  0.000000000  0.000000000
     0.000000000 10.000000000  0.000000000     0.000000000  0.100000000  0.000000000
     0.000000000  0.000000000 10.000000000     0.000000000  0.000000000  0.100000000

  length of vectors
    10.000000000 10.000000000 10.000000000     0.100000000  0.100000000  0.100000000


 FORCES acting on ions
    electron-ion (+dipol)            ewald-force                    non-local-force                 convergence-correction
 -----------------------------------------------------------------------------------------------
   0.218E-13 -.744E+02 0.704E-07   -.416E-16 0.800E+02 0.139E-16   0.662E-23 -.564E+01 0.000E+00   -.243E-14 0.286E-02 -.190E-13
   -.650E+02 -.381E+02 0.126E-06   0.699E+02 0.409E+02 -.470E-17   -.489E+01 -.283E+01 0.000E+00   0.244E-02 0.138E-02 -.180E-13
   -.650E+02 0.381E+02 0.251E-07   0.699E+02 -.409E+02 -.225E-17   -.489E+01 0.283E+01 0.000E+00   0.244E-02 -.138E-02 -.153E-13
   0.221E-13 0.744E+02 -.704E-07   -.311E-14 -.800E+02 0.566E-17   0.662E-23 0.564E+01 0.000E+00   -.864E-14 -.286E-02 -.205E-13
   0.650E+02 0.381E+02 -.126E-06   -.699E+02 -.409E+02 -.233E-17   0.489E+01 0.283E+01 0.000E+00   -.244E-02 -.138E-02 -.163E-13
   0.650E+02 -.381E+02 -.251E-07   -.699E+02 0.409E+02 -.249E-17   0.489E+01 -.283E+01 0.000E+00   -.244E-02 0.138E-02 -.114E-13
   0.485E-13 -.168E+03 -.262E-05   -.697E-13 0.169E+03 -.191E-16   0.529E-22 -.950E+00 0.155E-24   -.957E-14 0.161E-01 -.594E-13
   -.146E+03 -.847E+02 -.587E-05   0.147E+03 0.851E+02 0.152E-16   -.829E+00 -.476E+00 0.000E+00   0.141E-01 0.793E-02 -.538E-13
   -.146E+03 0.847E+02 0.102E-05   0.147E+03 -.851E+02 -.327E-16   -.829E+00 0.476E+00 0.414E-24   0.141E-01 -.793E-02 -.552E-13
   0.497E-13 0.168E+03 0.262E-05   -.278E-14 -.169E+03 -.111E-17   -.529E-22 0.950E+00 -.207E-24   -.332E-13 -.161E-01 -.775E-13
   0.146E+03 0.847E+02 0.587E-05   -.147E+03 -.851E+02 -.656E-17   0.829E+00 0.476E+00 0.000E+00   -.141E-01 -.793E-02 -.662E-13
   0.146E+03 -.847E+02 -.102E-05   -.147E+03 0.851E+02 -.373E-16   0.829E+00 -.476E+00 -.414E-24   -.141E-01 0.793E-02 -.446E-13
 -----------------------------------------------------------------------------------------------
   -.105E-11 -.441E-12 0.247E-11   0.284E-13 0.853E-13 -.738E-16   0.777E-15 -.666E-15 -.517E-25   -.199E-12 -.521E-12 -.457E-12
 
 
 POSITION                                       TOTAL-FORCE (eV/Angst)
 -----------------------------------------------------------------------------------
      5.00000      7.49277      5.00000         0.000000     -0.010379      0.000000
      7.15870      6.24620      5.00000        -0.005701     -0.004824      0.000000
      7.15870      3.75380      5.00000        -0.005701      0.004824      0.000000
      5.00000      2.50723      5.00000         0.000000      0.010379      0.000000
      2.84130      3.75380      5.00000         0.005701      0.004824      0.000000
      2.84130      6.24620      5.00000         0.005701     -0.004824      0.000000
      5.00000      6.39825      5.00000         0.000000     -0.013245      0.000000
      6.21105      5.69909      5.00000        -0.014403      0.001826      0.000000
      6.21105      4.30091      5.00000        -0.014403     -0.001826      0.000000
      5.00000      3.60175      5.00000         0.000000      0.013245      0.000000
      3.78895      4.30091      5.00000         0.014403     -0.001826      0.000000
      3.78895      5.69909      5.00000         0.014403      0.001826      0.000000
 -----------------------------------------------------------------------------------
    total drift:                                0.000000      0.000000      0.000000


--------------------------------------------------------------------------------------------------------



  FREE ENERGIE OF THE ION-ELECTRON SYSTEM (eV)
  ---------------------------------------------------
  free  energy   TOTEN  =       -76.003638 eV

  energy  without entropy=      -76.003638  energy(sigma->0) =      -76.003638
 
 d Force = 0.2878232E-02[-0.664E-03, 0.642E-02]  d Energy = 0.2977857E-02-0.996E-04
 d Force = 0.7853337E+01[ 0.783E+01, 0.788E+01]  d Ewald  = 0.7853297E+01 0.401E-04


--------------------------------------------------------------------------------------------------------


    POTLOK:  cpu time    3.42: real time    3.42


--------------------------------------------------------------------------------------------------------


 Conjugate gradient step on ions:
 trial-energy change:   -0.002978  1 .order   -0.002878   -0.006421    0.000664
  (g-gl).g = 0.760E-02      g.g   = 0.746E-02  gl.gl    = 0.188E-01
 g(Force)  = 0.746E-02   g(Stress)= 0.000E+00 ortho     =-0.141E-03
 gamma     =   0.40443
 trial     =   0.86746
 opt step  =   0.78615  (harmonic =   0.78615) maximal distance =0.00589162
 next E    =   -76.003570   (d E  =  -0.00291)


--------------------------------------------------------------------------------------------------------


    WAVPRE:  cpu time    0.35: real time    0.35
    FEWALD:  cpu time    0.00: real time    0.00
    ORTHCH:  cpu time    0.25: real time    0.25
     LOOP+:  cpu time   47.22: real time   47.32


----------------------------------------- Iteration    5(   1)  ---------------------------------------


    POTLOK:  cpu time    3.28: real time    3.28
    SETDIJ:  cpu time    0.13: real time    0.13
     EDDAV:  cpu time    3.74: real time    3.74
       DOS:  cpu time    0.00: real time    0.00
    CHARGE:  cpu time    0.52: real time    0.52
    MIXING:  cpu time    0.07: real time    0.07
    --------------------------------------------
      LOOP:  cpu time    7.74: real time    7.74

 eigenvalue-minimisations  :    84
 total energy-change (2. order) :-0.2779637E-04  (-0.3497433E-03)
 number of electron      30.0000016 magnetization       0.0000000
 augmentation part        0.6729358 magnetization      -0.0000016

 Broyden mixing:
  rms(total) = 0.18811E-02    rms(broyden)= 0.18795E-02
  rms(prec ) = 0.25376E-02
  weight for this iteration     100.00

 Free energy of the ion-electron system (eV)
  ---------------------------------------------------
  alpha Z        PSCENC =         4.10512363
  Ewald energy   TEWEN  =      1038.72161690
  -1/2 Hartree   DENC   =     -1822.72528873
  -exchange  EXHF       =         0.00000000
  -V(xc)+E(xc)   XCENC  =       101.76075894
  PAW double counting   =       444.26771552     -452.02298868
  entropy T*S    EENTRO =         0.00000000
  eigenvalues    EBANDS =      -347.34306760
  atomic energy  EATOM  =       957.23250565
  ---------------------------------------------------
  free energy    TOTEN  =       -76.00362438 eV

  energy without entropy =      -76.00362438  energy(sigma->0) =      -76.00362438


--------------------------------------------------------------------------------------------------------




----------------------------------------- Iteration    5(   2)  ---------------------------------------


    POTLOK:  cpu time    3.30: real time    3.30
    SETDIJ:  cpu time    0.13: real time    0.13
     EDDAV:  cpu time    3.24: real time    3.24
       DOS:  cpu time    0.00: real time    0.00
    --------------------------------------------
      LOOP:  cpu time    6.67: real time    6.67

 eigenvalue-minimisations  :    67
 total energy-change (2. order) : 0.5914111E-05  (-0.4382047E-05)
 number of electron      30.0000016 magnetization       0.0000000
 augmentation part        0.6729358 magnetization      -0.0000016

 Free energy of the ion-electron system (eV)
  ---------------------------------------------------
  alpha Z        PSCENC =         4.10512363
  Ewald energy   TEWEN  =      1038.72161690
  -1/2 Hartree   DENC   =     -1822.79211380
  -exchange  EXHF       =         0.00000000
  -V(xc)+E(xc)   XCENC  =       101.76319185
  PAW double counting   =       444.43694000     -452.19317613
  entropy T*S    EENTRO =         0.00000000
  eigenvalues    EBANDS =      -347.27770657
  atomic energy  EATOM  =       957.23250565
  ---------------------------------------------------
  free energy    TOTEN  =       -76.00361846 eV

  energy without entropy =      -76.00361846  energy(sigma->0) =      -76.00361846


--------------------------------------------------------------------------------------------------------




 average (electrostatic) potential at core
  the test charge radii are     0.5201  0.6991
  (the norm of the test charge is              1.0000)
       1 -41.5542       2 -41.5535       3 -41.5535       4 -41.5542       5 -41.5535
       6 -41.5535       7 -58.3772       8 -58.3766       9 -58.3766      10 -58.3772
      11 -58.3766      12 -58.3766
 
 
 
 E-fermi :  -4.8716     XC(G=0):  -1.5591     alpha+bet : -0.7680


 spin component 1

 k-point   1 :       0.0000    0.0000    0.0000
  band No.  band energies     occupation 
      1     -20.7190      1.00000
      2     -17.9352      1.00000
      3     -17.9333      1.00000
      4     -14.3065      1.00000
      5     -14.3052      1.00000
      6     -12.3468      1.00000
      7     -10.6555      1.00000
      8     -10.3835      1.00000
      9      -9.6909      1.00000
     10      -9.6883      1.00000
     11      -8.5695      1.00000
     12      -7.7103      1.00000
     13      -7.7072      1.00000
     14      -5.8444      1.00000
     15      -5.8431      1.00000
     16      -0.7440      0.00000
     17      -0.7338      0.00000
     18      -0.4449      0.00000
     19       0.7942      0.00000
     20       0.9859      0.00000
     21       1.0219      0.00000

 spin component 2

 k-point   1 :       0.0000    0.0000    0.0000
  band No.  band energies     occupation 
      1     -20.7190      1.00000
      2     -17.9352      1.00000
      3     -17.9333      1.00000
      4     -14.3065      1.00000
      5     -14.3052      1.00000
      6     -12.3468      1.00000
      7     -10.6555      1.00000
      8     -10.3836      1.00000
      9      -9.6909      1.00000
     10      -9.6883      1.00000
     11      -8.5695      1.00000
     12      -7.7103      1.00000
     13      -7.7072      1.00000
     14      -5.8444      1.00000
     15      -5.8431      1.00000
     16      -0.7440      0.00000
     17      -0.7338      0.00000
     18      -0.4450      0.00000
     19       0.7942      0.00000
     20       0.9853      0.00000
     21       1.0219      0.00000


--------------------------------------------------------------------------------------------------------


 soft charge-density along one line, spin component           1
         0         1         2         3         4         5         6         7         8         9
 total charge-density along one line
 
 soft charge-density along one line, spin component           2
         0         1         2         3         4         5         6         7         8         9
 total charge-density along one line
 
 pseudopotential strength for first ion, spin component:           1
 -2.342  -0.011   0.002   0.000   0.000
 -0.011   0.049   0.002   0.000   0.000
  0.002   0.002  -0.333   0.000   0.000
  0.000   0.000   0.000  -0.338   0.000
  0.000   0.000   0.000   0.000  -0.338
 pseudopotential strength for first ion, spin component:           2
 -2.342  -0.011   0.002   0.000   0.000
 -0.011   0.049   0.002   0.000   0.000
  0.002   0.002  -0.333   0.000   0.000
  0.000   0.000   0.000  -0.338   0.000
  0.000   0.000   0.000   0.000  -0.338
 total augmentation occupancy for first ion, spin component:           1
  1.737  -0.623  -0.295   0.000   0.000
 -0.623   0.274   0.118   0.000   0.000
 -0.295   0.118   0.053   0.000   0.000
  0.000   0.000   0.000   0.009   0.000
  0.000   0.000   0.000   0.000   0.007
 total augmentation occupancy for first ion, spin component:           2
  0.000   0.000   0.000   0.000   0.000
  0.000   0.000   0.000   0.000   0.000
  0.000   0.000   0.000   0.000   0.000
  0.000   0.000   0.000   0.000   0.000
  0.000   0.000   0.000   0.000   0.000


------------------------ aborting loop because EDIFF is reached ----------------------------------------


    CHARGE:  cpu time    0.52: real time    0.52
    FORLOC:  cpu time    0.23: real time    0.23
    FORNL :  cpu time    1.20: real time    1.20
    STRESS:  cpu time    2.06: real time    2.06
    FORHAR:  cpu time    0.53: real time    0.53
    MIXING:  cpu time    0.07: real time    0.07

  FORCE on cell =-STRESS in cart. coord.  units (eV):
  Direction    XX          YY          ZZ          XY          YZ          ZX
  --------------------------------------------------------------------------------------
  Alpha Z     4.10512     4.10512     4.10512
  Ewald     840.55297   841.26286  -643.09503     0.00000     0.00000     0.00000
  Hartree   902.49193   903.14257    17.32002     0.00000     0.00000     0.00000
  E(xc)    -105.05756  -105.05765  -108.49216     0.00000     0.00000     0.00000
  Local   -2016.72239 -2018.05378   293.85516     0.00000     0.00000     0.00000
  n-local   -38.67977   -38.67018   -34.85766     0.00000     0.00000     0.00000
  augment    -1.47251    -1.47599    -1.22633     0.00000     0.00000     0.00000
  Kinetic   411.81566   411.75970   469.09073     0.00000     0.00000     0.00000
  Fock        0.00000     0.00000     0.00000     0.00000     0.00000     0.00000
  -------------------------------------------------------------------------------------
  Total      -2.96655    -2.98735    -3.30015     0.00000     0.00000     0.00000
  in kB      -4.75294    -4.78626    -5.28742     0.00000     0.00000     0.00000
  external pressure =       -4.94 kB  Pullay stress =        0.00 kB


 VOLUME and BASIS-vectors are now :
 -----------------------------------------------------------------------------
  energy-cutoff  :      350.00
  volume of cell :     1000.00
      direct lattice vectors                 reciprocal lattice vectors
    10.000000000  0.000000000  0.000000000     0.100000000  0.000000000  0.000000000
     0.000000000 10.000000000  0.000000000     0.000000000  0.100000000  0.000000000
     0.000000000  0.000000000 10.000000000     0.000000000  0.000000000  0.100000000

  length of vectors
    10.000000000 10.000000000 10.000000000     0.100000000  0.100000000  0.100000000


 FORCES acting on ions
    electron-ion (+dipol)            ewald-force                    non-local-force                 convergence-correction
 -----------------------------------------------------------------------------------------------
   0.210E-13 -.744E+02 0.750E-07   -.888E-15 0.801E+02 -.355E-17   0.331E-23 -.565E+01 0.258E-25   -.897E-13 0.383E-02 0.686E-13
   -.650E+02 -.381E+02 0.127E-06   0.699E+02 0.409E+02 -.781E-18   -.490E+01 -.283E+01 -.646E-26   0.332E-02 0.187E-02 0.824E-13
   -.650E+02 0.381E+02 0.186E-07   0.699E+02 -.409E+02 0.412E-18   -.490E+01 0.283E+01 0.000E+00   0.332E-02 -.187E-02 0.872E-13
   0.219E-13 0.744E+02 -.750E-07   -.119E-14 -.801E+02 -.869E-17   0.331E-23 0.565E+01 -.258E-25   -.108E-13 -.383E-02 0.129E-12
   0.650E+02 0.381E+02 -.127E-06   -.699E+02 -.409E+02 0.705E-17   0.490E+01 0.283E+01 0.129E-25   -.332E-02 -.187E-02 0.208E-12
   0.650E+02 -.381E+02 -.186E-07   -.699E+02 0.409E+02 0.693E-17   0.490E+01 -.283E+01 -.258E-25   -.332E-02 0.187E-02 0.186E-12
   0.441E-13 -.168E+03 -.251E-05   0.777E-15 0.169E+03 0.130E-16   0.000E+00 -.944E+00 0.000E+00   -.714E-12 0.200E-01 0.433E-12
   -.146E+03 -.847E+02 -.581E-05   0.147E+03 0.852E+02 -.574E-16   -.824E+00 -.474E+00 -.155E-24   0.174E-01 0.973E-02 0.159E-12
   -.146E+03 0.847E+02 0.106E-05   0.147E+03 -.852E+02 0.574E-17   -.824E+00 0.474E+00 -.103E-24   0.174E-01 -.973E-02 0.198E-12
   0.489E-13 0.168E+03 0.251E-05   -.119E-13 -.169E+03 -.533E-17   0.000E+00 0.944E+00 0.000E+00   -.393E-12 -.200E-01 0.710E-12
   0.146E+03 0.847E+02 0.581E-05   -.147E+03 -.852E+02 -.260E-16   0.824E+00 0.474E+00 0.155E-24   -.174E-01 -.973E-02 0.123E-11
   0.146E+03 -.847E+02 -.106E-05   -.147E+03 0.852E+02 -.524E-17   0.824E+00 -.474E+00 -.103E-24   -.174E-01 0.973E-02 0.110E-11
 -----------------------------------------------------------------------------------------------
   0.207E-11 0.568E-12 -.635E-11   -.568E-13 0.853E-13 -.738E-16   -.111E-14 -.194E-14 -.226E-24   -.213E-11 -.146E-11 0.459E-11
 
 
 POSITION                                       TOTAL-FORCE (eV/Angst)
 -----------------------------------------------------------------------------------
      5.00000      7.49216      5.00000         0.000000     -0.004571      0.000000
      7.15818      6.24590      5.00000        -0.000894     -0.002011      0.000000
      7.15818      3.75410      5.00000        -0.000894      0.002011      0.000000
      5.00000      2.50784      5.00000         0.000000      0.004571      0.000000
      2.84182      3.75410      5.00000         0.000894      0.002011      0.000000
      2.84182      6.24590      5.00000         0.000894     -0.002011      0.000000
      5.00000      6.39782      5.00000         0.000000      0.000140      0.000000
      6.21067      5.69888      5.00000        -0.002721      0.007317      0.000000
      6.21067      4.30112      5.00000        -0.002721     -0.007317      0.000000
      5.00000      3.60218      5.00000         0.000000     -0.000140      0.000000
      3.78933      4.30112      5.00000         0.002721     -0.007317      0.000000
      3.78933      5.69888      5.00000         0.002721      0.007317      0.000000
 -----------------------------------------------------------------------------------
    total drift:                                0.000000      0.000000      0.000000


--------------------------------------------------------------------------------------------------------



  FREE ENERGIE OF THE ION-ELECTRON SYSTEM (eV)
  ---------------------------------------------------
  free  energy   TOTEN  =       -76.003618 eV

  energy  without entropy=      -76.003618  energy(sigma->0) =      -76.003618
 
 d Force = 0.3500222E-04[ 0.776E-05, 0.622E-04]  d Energy =-0.1979128E-04 0.548E-04
 d Force =-0.7338360E+00[-0.734E+00,-0.734E+00]  d Ewald  =-0.7338360E+00-0.330E-07


--------------------------------------------------------------------------------------------------------


    POTLOK:  cpu time    3.43: real time    3.43


--------------------------------------------------------------------------------------------------------




--------------------------------------------------------------------------------------------------------


  
 reached required accuracy - stopping structural energy minimisation
 writing wavefunctions
     LOOP+:  cpu time   22.63: real time   22.84
    4ORBIT:  cpu time    0.00: real time    0.00

 total amount of memory used by VASP on root node   156416. kBytes
========================================================================

   base      :      30000. kBytes
   nonl-proj :       4734. kBytes
   fftplans  :      30736. kBytes
   grid      :      80879. kBytes
   one-center:         73. kBytes
   wavefun   :       9994. kBytes
 
  
  
 General timing and accounting informations for this job:
 ========================================================
  
                  Total CPU time used (sec):      353.579
                            User time (sec):      351.285
                          System time (sec):        2.295
                         Elapsed time (sec):      358.719
  
                   Maximum memory used (kb):           0.
                   Average memory used (kb):           0.
  
                          Minor page faults:       719089
                          Major page faults:            0
                 Voluntary context switches:        13753
