 running on    1 nodes
 distr:  one band on    1 nodes,    1 groups
 vasp.5.2.12 11Nov11 complex                                                    
  
 POSCAR found :  2 types and       2 ions
 LDA part: xc-table for Pade appr. of Perdew
 POSCAR, INCAR and KPOINTS ok, starting setup
 WARNING: small aliasing (wrap around) errors must be expected
 FFT: planning ...(           1 )
 WAVECAR not read
 entering main loop
       N       E                     dE             d eps       ncg     rms          rms(c)
DAV:   1     0.692058811308E+02    0.69206E+02   -0.22581E+03    42   0.545E+02
DAV:   2    -0.707615745402E+01   -0.76282E+02   -0.75734E+02    49   0.177E+02
DAV:   3    -0.147007944152E+02   -0.76246E+01   -0.76246E+01    42   0.750E+01
DAV:   4    -0.147623871543E+02   -0.61593E-01   -0.61593E-01    49   0.729E+00
DAV:   5    -0.147624284876E+02   -0.41333E-04   -0.41334E-04    42   0.183E-01    0.974E+00
DAV:   6    -0.987929067366E+01    0.48831E+01   -0.82336E+00    28   0.240E+01    0.364E+00
DAV:   7    -0.130319746797E+02   -0.31527E+01   -0.24814E+00    42   0.114E+01    0.178E+00
DAV:   8    -0.144229985134E+02   -0.13910E+01   -0.74068E-01    49   0.558E+00    0.723E-01
DAV:   9    -0.146987045458E+02   -0.27571E+00   -0.26451E-02    35   0.148E+00    0.339E-01
DAV:  10    -0.147994043702E+02   -0.10070E+00   -0.12000E-02    42   0.841E-01    0.866E-02
DAV:  11    -0.148014786418E+02   -0.20743E-02   -0.51303E-04    42   0.220E-01    0.362E-02
DAV:  12    -0.148038173100E+02   -0.23387E-02   -0.11486E-04    42   0.106E-01    0.232E-02
DAV:  13    -0.148056354907E+02   -0.18182E-02   -0.43027E-04    42   0.130E-01    0.126E-02
DAV:  14    -0.148062467247E+02   -0.61123E-03   -0.60761E-05    42   0.613E-02    0.101E-02
DAV:  15    -0.148071342157E+02   -0.88749E-03   -0.10830E-04    42   0.661E-02    0.542E-03
DAV:  16    -0.148073272401E+02   -0.19302E-03   -0.34638E-05    42   0.362E-02    0.345E-03
DAV:  17    -0.148075380146E+02   -0.21077E-03   -0.12209E-05    28   0.224E-02    0.226E-03
DAV:  18    -0.148076118401E+02   -0.73826E-04   -0.40214E-06    14   0.150E-02
   1 F= -.14807612E+02 E0= -.14807612E+02  d E =-.148076E+02  mag=     0.0002
 curvature:   0.00 expect dE= 0.000E+00 dE for cont linesearch  0.000E+00
 trial: gam= 0.00000 g(F)=  0.508E-01 g(S)=  0.000E+00 ort = 0.000E+00 (trialstep = 0.100E+01)
 search vector abs. value=  0.508E-01
 bond charge predicted
       N       E                     dE             d eps       ncg     rms          rms(c)
DAV:   1    -0.145637881894E+02    0.24375E+00   -0.13096E+01    28   0.496E+01    0.118E+00
DAV:   2    -0.145561686698E+02    0.76195E-02   -0.31037E-01    28   0.671E+00    0.708E-01
DAV:   3    -0.145442116389E+02    0.11957E-01   -0.53832E-02    56   0.260E+00    0.156E-01
DAV:   4    -0.145446169105E+02   -0.40527E-03   -0.17043E-03    42   0.484E-01    0.822E-02
DAV:   5    -0.145449154985E+02   -0.29859E-03   -0.24115E-04    28   0.148E-01    0.379E-02
DAV:   6    -0.145451411347E+02   -0.22564E-03   -0.51585E-05    14   0.102E-01    0.112E-02
DAV:   7    -0.145454313346E+02   -0.29020E-03   -0.45134E-05    42   0.611E-02    0.729E-03
DAV:   8    -0.145457249283E+02   -0.29359E-03   -0.52089E-05    42   0.457E-02    0.487E-03
DAV:   9    -0.145458374820E+02   -0.11255E-03   -0.78981E-06    42   0.211E-02    0.314E-03
DAV:  10    -0.145458955980E+02   -0.58116E-04   -0.29494E-06    14   0.151E-02
   2 F= -.14545896E+02 E0= -.14545896E+02  d E =0.261716E+00  mag=     0.0000
 trial-energy change:    0.261716  1 .order    0.289464   -0.050821    0.629749
 step:   0.0959(harm=  0.0747)  dis= 0.00336  next Energy=   -14.810073 (dE=-0.246E-02)
 bond charge predicted
       N       E                     dE             d eps       ncg     rms          rms(c)
DAV:   1    -0.148323762515E+02   -0.28654E+00   -0.10834E+01    28   0.449E+01    0.113E+00
DAV:   2    -0.148154962082E+02    0.16880E-01   -0.21406E-01    42   0.562E+00    0.597E-01
DAV:   3    -0.148085429550E+02    0.69533E-02   -0.38348E-02    42   0.220E+00    0.134E-01
DAV:   4    -0.148091379009E+02   -0.59495E-03   -0.15367E-03    42   0.454E-01    0.705E-02
DAV:   5    -0.148093196694E+02   -0.18177E-03   -0.21953E-04    14   0.125E-01    0.348E-02
DAV:   6    -0.148096342438E+02   -0.31457E-03   -0.92765E-05    28   0.966E-02    0.129E-02
DAV:   7    -0.148097929655E+02   -0.15872E-03   -0.42402E-05    14   0.607E-02    0.787E-03
DAV:   8    -0.148099479126E+02   -0.15495E-03   -0.43376E-05    28   0.492E-02    0.485E-03
DAV:   9    -0.148100028244E+02   -0.54912E-04   -0.43381E-06    14   0.220E-02
   3 F= -.14810003E+02 E0= -.14810003E+02  d E =-.239098E-02  mag=     0.0000
 curvature:  -0.04 expect dE=-0.699E-06 dE for cont linesearch -0.699E-06
 trial: gam= 0.00000 g(F)=  0.187E-04 g(S)=  0.000E+00 ort =-0.976E-03 (trialstep = 0.819E+00)
 search vector abs. value=  0.187E-04
 reached required accuracy - stopping structural energy minimisation
 writing wavefunctions
NPROCS =  1
