   2   2   0   0
  0.5000000E+03  0.1000000E-08  0.1000000E-08  0.1000000E-08  0.5000000E-15
  1.000000000000000E-004
  CAR 
 unknown system                          
     -0.00488132    -31.18223678  301     -8.00625731      1.00000000
    -31.182  0.0000E+00  0.0000E+00  0.0000E+00  0.0000E+00
    -31.078  0.0000E+00  0.0000E+00  0.0000E+00  0.0000E+00
    -30.974  0.0000E+00  0.0000E+00  0.0000E+00  0.0000E+00
    -30.870  0.0000E+00  0.0000E+00  0.0000E+00  0.0000E+00
    -30.767  0.0000E+00  0.0000E+00  0.0000E+00  0.0000E+00
    -30.663  0.0000E+00  0.0000E+00  0.0000E+00  0.0000E+00
    -30.559  0.0000E+00  0.0000E+00  0.0000E+00  0.0000E+00
    -30.455  0.0000E+00  0.0000E+00  0.0000E+00  0.0000E+00
    -30.351  0.5341E-16  0.5341E-16  0.5551E-17  0.5551E-17
    -30.247  0.2462E-13  0.2468E-13  0.2565E-14  0.2570E-14
    -30.143  0.5237E-11  0.5239E-11  0.5468E-12  0.5470E-12
    -30.039  0.6547E-09  0.6549E-09  0.6859E-10  0.6861E-10
    -29.935  0.4821E-07  0.4822E-07  0.5078E-08  0.5080E-08
    -29.831  0.2093E-05  0.2094E-05  0.2226E-06  0.2227E-06
    -29.727  0.5372E-04  0.5373E-04  0.5806E-05  0.5807E-05
    -29.623  0.8162E-03  0.8164E-03  0.9063E-04  0.9065E-04
    -29.519  0.7357E-02  0.7358E-02  0.8552E-03  0.8553E-03
    -29.416  0.3941E-01  0.3942E-01  0.4951E-02  0.4952E-02
    -29.312  0.1257E+00  0.1257E+00  0.1802E-01  0.1802E-01
    -29.208  0.2391E+00  0.2391E+00  0.4286E-01  0.4286E-01
    -29.104  0.2713E+00  0.2713E+00  0.7105E-01  0.7106E-01
    -29.000  0.1837E+00  0.1837E+00  0.9014E-01  0.9015E-01
    -28.896  0.7420E-01  0.7419E-01  0.9785E-01  0.9786E-01
    -28.792  0.1786E-01  0.1785E-01  0.9971E-01  0.9971E-01
    -28.688  0.2556E-02  0.2556E-02  0.9998E-01  0.9998E-01
    -28.584  0.2173E-03  0.2173E-03  0.1000E+00  0.1000E+00
    -28.480  0.1095E-04  0.1095E-04  0.1000E+00  0.1000E+00
    -28.376  0.3263E-06  0.3262E-06  0.1000E+00  0.1000E+00
    -28.272  0.5740E-08  0.5738E-08  0.1000E+00  0.1000E+00
    -28.168  0.5951E-10  0.5949E-10  0.1000E+00  0.1000E+00
    -28.065  0.3630E-12  0.3629E-12  0.1000E+00  0.1000E+00
    -27.961  0.1282E-14  0.1282E-14  0.1000E+00  0.1000E+00
    -27.857  0.0000E+00  0.0000E+00  0.1000E+00  0.1000E+00
    -27.753  0.0000E+00  0.0000E+00  0.1000E+00  0.1000E+00
    -27.649  0.0000E+00  0.0000E+00  0.1000E+00  0.1000E+00
    -27.545  0.0000E+00  0.0000E+00  0.1000E+00  0.1000E+00
    -27.441  0.0000E+00  0.0000E+00  0.1000E+00  0.1000E+00
    -27.337  0.0000E+00  0.0000E+00  0.1000E+00  0.1000E+00
    -27.233  0.0000E+00  0.0000E+00  0.1000E+00  0.1000E+00
    -27.129  0.0000E+00  0.0000E+00  0.1000E+00  0.1000E+00
    -27.025  0.0000E+00  0.0000E+00  0.1000E+00  0.1000E+00
    -26.921  0.0000E+00  0.0000E+00  0.1000E+00  0.1000E+00
    -26.817  0.0000E+00  0.0000E+00  0.1000E+00  0.1000E+00
    -26.713  0.0000E+00  0.0000E+00  0.1000E+00  0.1000E+00
    -26.610  0.0000E+00  0.0000E+00  0.1000E+00  0.1000E+00
    -26.506  0.0000E+00  0.0000E+00  0.1000E+00  0.1000E+00
    -26.402  0.0000E+00  0.0000E+00  0.1000E+00  0.1000E+00
    -26.298  0.0000E+00  0.0000E+00  0.1000E+00  0.1000E+00
    -26.194  0.0000E+00  0.0000E+00  0.1000E+00  0.1000E+00
    -26.090  0.0000E+00  0.0000E+00  0.1000E+00  0.1000E+00
    -25.986  0.0000E+00  0.0000E+00  0.1000E+00  0.1000E+00
    -25.882  0.0000E+00  0.0000E+00  0.1000E+00  0.1000E+00
    -25.778  0.0000E+00  0.0000E+00  0.1000E+00  0.1000E+00
    -25.674  0.0000E+00  0.0000E+00  0.1000E+00  0.1000E+00
    -25.570  0.0000E+00  0.0000E+00  0.1000E+00  0.1000E+00
    -25.466  0.0000E+00  0.0000E+00  0.1000E+00  0.1000E+00
    -25.362  0.0000E+00  0.0000E+00  0.1000E+00  0.1000E+00
    -25.259  0.0000E+00  0.0000E+00  0.1000E+00  0.1000E+00
    -25.155  0.0000E+00  0.0000E+00  0.1000E+00  0.1000E+00
    -25.051  0.0000E+00  0.0000E+00  0.1000E+00  0.1000E+00
    -24.947  0.0000E+00  0.0000E+00  0.1000E+00  0.1000E+00
    -24.843  0.0000E+00  0.0000E+00  0.1000E+00  0.1000E+00
    -24.739  0.0000E+00  0.0000E+00  0.1000E+00  0.1000E+00
    -24.635  0.0000E+00  0.0000E+00  0.1000E+00  0.1000E+00
    -24.531  0.0000E+00  0.0000E+00  0.1000E+00  0.1000E+00
    -24.427  0.0000E+00  0.0000E+00  0.1000E+00  0.1000E+00
    -24.323  0.0000E+00  0.0000E+00  0.1000E+00  0.1000E+00
    -24.219  0.0000E+00  0.0000E+00  0.1000E+00  0.1000E+00
    -24.115  0.0000E+00  0.0000E+00  0.1000E+00  0.1000E+00
    -24.011  0.0000E+00  0.0000E+00  0.1000E+00  0.1000E+00
    -23.908  0.0000E+00  0.0000E+00  0.1000E+00  0.1000E+00
    -23.804  0.0000E+00  0.0000E+00  0.1000E+00  0.1000E+00
    -23.700  0.0000E+00  0.0000E+00  0.1000E+00  0.1000E+00
    -23.596  0.0000E+00  0.0000E+00  0.1000E+00  0.1000E+00
    -23.492  0.0000E+00  0.0000E+00  0.1000E+00  0.1000E+00
    -23.388  0.0000E+00  0.0000E+00  0.1000E+00  0.1000E+00
    -23.284  0.0000E+00  0.0000E+00  0.1000E+00  0.1000E+00
    -23.180  0.0000E+00  0.0000E+00  0.1000E+00  0.1000E+00
    -23.076  0.0000E+00  0.0000E+00  0.1000E+00  0.1000E+00
    -22.972  0.0000E+00  0.0000E+00  0.1000E+00  0.1000E+00
    -22.868  0.0000E+00  0.0000E+00  0.1000E+00  0.1000E+00
    -22.764  0.0000E+00  0.0000E+00  0.1000E+00  0.1000E+00
    -22.660  0.0000E+00  0.0000E+00  0.1000E+00  0.1000E+00
    -22.557  0.0000E+00  0.0000E+00  0.1000E+00  0.1000E+00
    -22.453  0.0000E+00  0.0000E+00  0.1000E+00  0.1000E+00
    -22.349  0.0000E+00  0.0000E+00  0.1000E+00  0.1000E+00
    -22.245  0.0000E+00  0.0000E+00  0.1000E+00  0.1000E+00
    -22.141  0.0000E+00  0.0000E+00  0.1000E+00  0.1000E+00
    -22.037  0.0000E+00  0.0000E+00  0.1000E+00  0.1000E+00
    -21.933  0.0000E+00  0.0000E+00  0.1000E+00  0.1000E+00
    -21.829  0.0000E+00  0.0000E+00  0.1000E+00  0.1000E+00
    -21.725  0.0000E+00  0.0000E+00  0.1000E+00  0.1000E+00
    -21.621  0.0000E+00  0.0000E+00  0.1000E+00  0.1000E+00
    -21.517  0.0000E+00  0.0000E+00  0.1000E+00  0.1000E+00
    -21.413  0.0000E+00  0.0000E+00  0.1000E+00  0.1000E+00
    -21.309  0.0000E+00  0.0000E+00  0.1000E+00  0.1000E+00
    -21.205  0.0000E+00  0.0000E+00  0.1000E+00  0.1000E+00
    -21.102  0.0000E+00  0.0000E+00  0.1000E+00  0.1000E+00
    -20.998  0.0000E+00  0.0000E+00  0.1000E+00  0.1000E+00
    -20.894  0.0000E+00  0.0000E+00  0.1000E+00  0.1000E+00
    -20.790  0.0000E+00  0.0000E+00  0.1000E+00  0.1000E+00
    -20.686  0.0000E+00  0.0000E+00  0.1000E+00  0.1000E+00
    -20.582  0.0000E+00  0.0000E+00  0.1000E+00  0.1000E+00
    -20.478  0.0000E+00  0.0000E+00  0.1000E+00  0.1000E+00
    -20.374  0.0000E+00  0.0000E+00  0.1000E+00  0.1000E+00
    -20.270  0.0000E+00  0.0000E+00  0.1000E+00  0.1000E+00
    -20.166  0.0000E+00  0.0000E+00  0.1000E+00  0.1000E+00
    -20.062  0.0000E+00  0.0000E+00  0.1000E+00  0.1000E+00
    -19.958  0.0000E+00  0.0000E+00  0.1000E+00  0.1000E+00
    -19.854  0.0000E+00  0.0000E+00  0.1000E+00  0.1000E+00
    -19.751  0.0000E+00  0.0000E+00  0.1000E+00  0.1000E+00
    -19.647  0.0000E+00  0.0000E+00  0.1000E+00  0.1000E+00
    -19.543  0.0000E+00  0.0000E+00  0.1000E+00  0.1000E+00
    -19.439  0.0000E+00  0.0000E+00  0.1000E+00  0.1000E+00
    -19.335  0.0000E+00  0.0000E+00  0.1000E+00  0.1000E+00
    -19.231  0.0000E+00  0.0000E+00  0.1000E+00  0.1000E+00
    -19.127  0.0000E+00  0.0000E+00  0.1000E+00  0.1000E+00
    -19.023  0.0000E+00  0.0000E+00  0.1000E+00  0.1000E+00
    -18.919  0.0000E+00  0.0000E+00  0.1000E+00  0.1000E+00
    -18.815  0.0000E+00  0.0000E+00  0.1000E+00  0.1000E+00
    -18.711  0.0000E+00  0.0000E+00  0.1000E+00  0.1000E+00
    -18.607  0.0000E+00  0.0000E+00  0.1000E+00  0.1000E+00
    -18.503  0.0000E+00  0.0000E+00  0.1000E+00  0.1000E+00
    -18.400  0.0000E+00  0.0000E+00  0.1000E+00  0.1000E+00
    -18.296  0.0000E+00  0.0000E+00  0.1000E+00  0.1000E+00
    -18.192  0.0000E+00  0.0000E+00  0.1000E+00  0.1000E+00
    -18.088  0.0000E+00  0.0000E+00  0.1000E+00  0.1000E+00
    -17.984  0.0000E+00  0.0000E+00  0.1000E+00  0.1000E+00
    -17.880  0.0000E+00  0.0000E+00  0.1000E+00  0.1000E+00
    -17.776  0.0000E+00  0.0000E+00  0.1000E+00  0.1000E+00
    -17.672  0.0000E+00  0.0000E+00  0.1000E+00  0.1000E+00
    -17.568  0.0000E+00  0.0000E+00  0.1000E+00  0.1000E+00
    -17.464  0.0000E+00  0.0000E+00  0.1000E+00  0.1000E+00
    -17.360  0.0000E+00  0.0000E+00  0.1000E+00  0.1000E+00
    -17.256  0.0000E+00  0.0000E+00  0.1000E+00  0.1000E+00
    -17.152  0.0000E+00  0.0000E+00  0.1000E+00  0.1000E+00
    -17.049  0.0000E+00  0.0000E+00  0.1000E+00  0.1000E+00
    -16.945  0.0000E+00  0.0000E+00  0.1000E+00  0.1000E+00
    -16.841  0.0000E+00  0.0000E+00  0.1000E+00  0.1000E+00
    -16.737  0.0000E+00  0.0000E+00  0.1000E+00  0.1000E+00
    -16.633  0.0000E+00  0.0000E+00  0.1000E+00  0.1000E+00
    -16.529  0.0000E+00  0.0000E+00  0.1000E+00  0.1000E+00
    -16.425  0.0000E+00  0.0000E+00  0.1000E+00  0.1000E+00
    -16.321  0.0000E+00  0.0000E+00  0.1000E+00  0.1000E+00
    -16.217  0.0000E+00  0.0000E+00  0.1000E+00  0.1000E+00
    -16.113  0.0000E+00  0.0000E+00  0.1000E+00  0.1000E+00
    -16.009  0.0000E+00  0.0000E+00  0.1000E+00  0.1000E+00
    -15.905  0.0000E+00  0.0000E+00  0.1000E+00  0.1000E+00
    -15.801  0.0000E+00  0.0000E+00  0.1000E+00  0.1000E+00
    -15.697  0.0000E+00  0.0000E+00  0.1000E+00  0.1000E+00
    -15.594  0.0000E+00  0.0000E+00  0.1000E+00  0.1000E+00
    -15.490  0.0000E+00  0.0000E+00  0.1000E+00  0.1000E+00
    -15.386  0.0000E+00  0.0000E+00  0.1000E+00  0.1000E+00
    -15.282  0.0000E+00  0.0000E+00  0.1000E+00  0.1000E+00
    -15.178  0.0000E+00  0.0000E+00  0.1000E+00  0.1000E+00
    -15.074  0.1015E-14  0.1015E-14  0.1000E+00  0.1000E+00
    -14.970  0.2843E-12  0.2840E-12  0.1000E+00  0.1000E+00
    -14.866  0.4774E-10  0.4769E-10  0.1000E+00  0.1000E+00
    -14.762  0.4717E-08  0.4713E-08  0.1000E+00  0.1000E+00
    -14.658  0.2746E-06  0.2744E-06  0.1000E+00  0.1000E+00
    -14.554  0.9440E-05  0.9433E-05  0.1000E+00  0.1000E+00
    -14.450  0.1919E-03  0.1918E-03  0.1000E+00  0.1000E+00
    -14.346  0.2311E-02  0.2310E-02  0.1003E+00  0.1003E+00
    -14.243  0.1653E-01  0.1652E-01  0.1020E+00  0.1020E+00
    -14.139  0.7033E-01  0.7031E-01  0.1093E+00  0.1093E+00
    -14.035  0.1783E+00  0.1782E+00  0.1278E+00  0.1278E+00
    -13.931  0.2695E+00  0.2695E+00  0.1558E+00  0.1558E+00
    -13.827  0.2432E+00  0.2432E+00  0.1811E+00  0.1811E+00
    -13.723  0.1309E+00  0.1309E+00  0.1947E+00  0.1947E+00
    -13.619  0.4202E-01  0.4203E-01  0.1991E+00  0.1991E+00
    -13.515  0.8030E-02  0.8033E-02  0.1999E+00  0.1999E+00
    -13.411  0.9123E-03  0.9128E-03  0.2000E+00  0.2000E+00
    -13.307  0.6149E-04  0.6153E-04  0.2000E+00  0.2000E+00
    -13.203  0.2454E-05  0.2456E-05  0.2000E+00  0.2000E+00
    -13.099  0.5788E-07  0.5793E-07  0.2000E+00  0.2000E+00
    -12.995  0.8052E-09  0.8060E-09  0.2000E+00  0.2000E+00
    -12.892  0.6598E-11  0.6605E-11  0.2000E+00  0.2000E+00
    -12.788  0.3205E-13  0.3216E-13  0.2000E+00  0.2000E+00
    -12.684  0.9540E-13  0.9508E-13  0.2000E+00  0.2000E+00
    -12.580  0.1903E-10  0.1897E-10  0.2000E+00  0.2000E+00
    -12.476  0.2235E-08  0.2229E-08  0.2000E+00  0.2000E+00
    -12.372  0.1546E-06  0.1542E-06  0.2000E+00  0.2000E+00
    -12.268  0.6309E-05  0.6297E-05  0.2000E+00  0.2000E+00
    -12.164  0.1522E-03  0.1519E-03  0.2000E+00  0.2000E+00
    -12.060  0.2174E-02  0.2171E-02  0.2002E+00  0.2002E+00
    -11.956  0.1843E-01  0.1841E-01  0.2022E+00  0.2022E+00
    -11.852  0.9285E-01  0.9278E-01  0.2118E+00  0.2118E+00
    -11.748  0.2786E+00  0.2785E+00  0.2408E+00  0.2407E+00
    -11.644  0.4985E+00  0.4984E+00  0.2926E+00  0.2925E+00
    -11.541  0.5323E+00  0.5323E+00  0.3479E+00  0.3479E+00
    -11.437  0.3391E+00  0.3393E+00  0.3831E+00  0.3831E+00
    -11.333  0.1289E+00  0.1290E+00  0.3965E+00  0.3965E+00
    -11.229  0.2917E-01  0.2920E-01  0.3996E+00  0.3996E+00
    -11.125  0.3928E-02  0.3933E-02  0.4000E+00  0.4000E+00
    -11.021  0.3140E-03  0.3145E-03  0.4000E+00  0.4000E+00
    -10.917  0.1487E-04  0.1490E-04  0.4000E+00  0.4000E+00
    -10.813  0.4165E-06  0.4174E-06  0.4000E+00  0.4000E+00
    -10.709  0.6884E-08  0.6901E-08  0.4000E+00  0.4000E+00
    -10.605  0.6705E-10  0.6723E-10  0.4000E+00  0.4000E+00
    -10.501  0.3842E-12  0.3854E-12  0.4000E+00  0.4000E+00
    -10.397  0.1282E-14  0.1282E-14  0.4000E+00  0.4000E+00
    -10.293  0.0000E+00  0.0000E+00  0.4000E+00  0.4000E+00
    -10.189  0.0000E+00  0.0000E+00  0.4000E+00  0.4000E+00
    -10.086  0.1068E-15  0.1068E-15  0.4000E+00  0.4000E+00
     -9.982  0.3910E-13  0.3910E-13  0.4000E+00  0.4000E+00
     -9.878  0.7956E-11  0.7953E-11  0.4000E+00  0.4000E+00
     -9.774  0.9521E-09  0.9518E-09  0.4000E+00  0.4000E+00
     -9.670  0.6711E-07  0.6709E-07  0.4000E+00  0.4000E+00
     -9.566  0.2791E-05  0.2790E-05  0.4000E+00  0.4000E+00
     -9.462  0.6858E-04  0.6857E-04  0.4000E+00  0.4000E+00
     -9.358  0.9979E-03  0.9978E-03  0.4001E+00  0.4001E+00
     -9.254  0.8616E-02  0.8615E-02  0.4010E+00  0.4010E+00
     -9.150  0.4423E-01  0.4422E-01  0.4056E+00  0.4056E+00
     -9.046  0.1352E+00  0.1352E+00  0.4197E+00  0.4196E+00
     -8.942  0.2463E+00  0.2463E+00  0.4453E+00  0.4452E+00
     -8.838  0.2679E+00  0.2679E+00  0.4731E+00  0.4731E+00
     -8.735  0.1738E+00  0.1738E+00  0.4912E+00  0.4912E+00
     -8.631  0.6728E-01  0.6729E-01  0.4981E+00  0.4981E+00
     -8.527  0.1551E-01  0.1552E-01  0.4998E+00  0.4998E+00
     -8.423  0.2128E-02  0.2128E-02  0.5000E+00  0.5000E+00
     -8.319  0.1733E-03  0.1733E-03  0.5000E+00  0.5000E+00
     -8.215  0.8360E-05  0.8362E-05  0.5000E+00  0.5000E+00
     -8.111  0.2385E-06  0.2386E-06  0.5000E+00  0.5000E+00
     -8.007  0.4018E-08  0.4019E-08  0.5000E+00  0.5000E+00
     -7.903  0.3987E-10  0.3989E-10  0.5000E+00  0.5000E+00
     -7.799  0.2328E-12  0.2329E-12  0.5000E+00  0.5000E+00
     -7.695  0.8546E-15  0.8546E-15  0.5000E+00  0.5000E+00
     -7.591  0.0000E+00  0.0000E+00  0.5000E+00  0.5000E+00
     -7.487  0.0000E+00  0.0000E+00  0.5000E+00  0.5000E+00
     -7.384  0.0000E+00  0.0000E+00  0.5000E+00  0.5000E+00
     -7.280  0.0000E+00  0.0000E+00  0.5000E+00  0.5000E+00
     -7.176  0.0000E+00  0.0000E+00  0.5000E+00  0.5000E+00
     -7.072  0.0000E+00  0.0000E+00  0.5000E+00  0.5000E+00
     -6.968  0.0000E+00  0.0000E+00  0.5000E+00  0.5000E+00
     -6.864  0.0000E+00  0.0000E+00  0.5000E+00  0.5000E+00
     -6.760  0.0000E+00  0.0000E+00  0.5000E+00  0.5000E+00
     -6.656  0.0000E+00  0.0000E+00  0.5000E+00  0.5000E+00
     -6.552  0.0000E+00  0.0000E+00  0.5000E+00  0.5000E+00
     -6.448  0.0000E+00  0.0000E+00  0.5000E+00  0.5000E+00
     -6.344  0.0000E+00  0.0000E+00  0.5000E+00  0.5000E+00
     -6.240  0.0000E+00  0.0000E+00  0.5000E+00  0.5000E+00
     -6.136  0.0000E+00  0.0000E+00  0.5000E+00  0.5000E+00
     -6.033  0.0000E+00  0.0000E+00  0.5000E+00  0.5000E+00
     -5.929  0.0000E+00  0.0000E+00  0.5000E+00  0.5000E+00
     -5.825  0.0000E+00  0.0000E+00  0.5000E+00  0.5000E+00
     -5.721  0.0000E+00  0.0000E+00  0.5000E+00  0.5000E+00
     -5.617  0.0000E+00  0.0000E+00  0.5000E+00  0.5000E+00
     -5.513  0.0000E+00  0.0000E+00  0.5000E+00  0.5000E+00
     -5.409  0.0000E+00  0.0000E+00  0.5000E+00  0.5000E+00
     -5.305  0.0000E+00  0.0000E+00  0.5000E+00  0.5000E+00
     -5.201  0.0000E+00  0.0000E+00  0.5000E+00  0.5000E+00
     -5.097  0.0000E+00  0.0000E+00  0.5000E+00  0.5000E+00
     -4.993  0.0000E+00  0.0000E+00  0.5000E+00  0.5000E+00
     -4.889  0.0000E+00  0.0000E+00  0.5000E+00  0.5000E+00
     -4.785  0.0000E+00  0.0000E+00  0.5000E+00  0.5000E+00
     -4.681  0.0000E+00  0.0000E+00  0.5000E+00  0.5000E+00
     -4.578  0.0000E+00  0.0000E+00  0.5000E+00  0.5000E+00
     -4.474  0.0000E+00  0.0000E+00  0.5000E+00  0.5000E+00
     -4.370  0.0000E+00  0.0000E+00  0.5000E+00  0.5000E+00
     -4.266  0.0000E+00  0.0000E+00  0.5000E+00  0.5000E+00
     -4.162  0.0000E+00  0.0000E+00  0.5000E+00  0.5000E+00
     -4.058  0.0000E+00  0.0000E+00  0.5000E+00  0.5000E+00
     -3.954  0.0000E+00  0.0000E+00  0.5000E+00  0.5000E+00
     -3.850  0.0000E+00  0.0000E+00  0.5000E+00  0.5000E+00
     -3.746  0.0000E+00  0.0000E+00  0.5000E+00  0.5000E+00
     -3.642  0.0000E+00  0.0000E+00  0.5000E+00  0.5000E+00
     -3.538  0.0000E+00  0.0000E+00  0.5000E+00  0.5000E+00
     -3.434  0.0000E+00  0.0000E+00  0.5000E+00  0.5000E+00
     -3.330  0.0000E+00  0.0000E+00  0.5000E+00  0.5000E+00
     -3.227  0.0000E+00  0.0000E+00  0.5000E+00  0.5000E+00
     -3.123  0.2671E-14  0.2564E-14  0.5000E+00  0.5000E+00
     -3.019  0.7286E-12  0.7258E-12  0.5000E+00  0.5000E+00
     -2.915  0.1194E-09  0.1190E-09  0.5000E+00  0.5000E+00
     -2.811  0.1151E-07  0.1148E-07  0.5000E+00  0.5000E+00
     -2.707  0.6541E-06  0.6524E-06  0.5000E+00  0.5000E+00
     -2.603  0.2194E-04  0.2189E-04  0.5000E+00  0.5000E+00
     -2.499  0.4354E-03  0.4346E-03  0.5000E+00  0.5000E+00
     -2.395  0.5120E-02  0.5112E-02  0.5006E+00  0.5006E+00
     -2.291  0.3575E-01  0.3571E-01  0.5043E+00  0.5043E+00
     -2.187  0.1485E+00  0.1484E+00  0.5197E+00  0.5197E+00
     -2.083  0.3675E+00  0.3674E+00  0.5579E+00  0.5579E+00
     -1.979  0.5426E+00  0.5425E+00  0.6143E+00  0.6143E+00
     -1.876  0.4780E+00  0.4782E+00  0.6640E+00  0.6640E+00
     -1.772  0.2513E+00  0.2514E+00  0.6901E+00  0.6901E+00
     -1.668  0.7875E-01  0.7883E-01  0.6983E+00  0.6983E+00
     -1.564  0.1470E-01  0.1472E-01  0.6998E+00  0.6998E+00
     -1.460  0.1630E-02  0.1633E-02  0.7000E+00  0.7000E+00
     -1.356  0.1072E-03  0.1075E-03  0.7000E+00  0.7000E+00
     -1.252  0.4177E-05  0.4188E-05  0.7000E+00  0.7000E+00
     -1.148  0.9616E-07  0.9644E-07  0.7000E+00  0.7000E+00
     -1.044  0.1306E-08  0.1310E-08  0.7000E+00  0.7000E+00
     -0.940  0.1044E-10  0.1048E-10  0.7000E+00  0.7000E+00
     -0.836  0.4914E-13  0.4957E-13  0.7000E+00  0.7000E+00
     -0.732  0.0000E+00  0.0000E+00  0.7000E+00  0.7000E+00
     -0.628  0.0000E+00  0.0000E+00  0.7000E+00  0.7000E+00
     -0.525  0.0000E+00  0.0000E+00  0.7000E+00  0.7000E+00
     -0.421  0.0000E+00  0.0000E+00  0.7000E+00  0.7000E+00
     -0.317  0.0000E+00  0.0000E+00  0.7000E+00  0.7000E+00
     -0.213  0.0000E+00  0.0000E+00  0.7000E+00  0.7000E+00
     -0.109  0.0000E+00  0.0000E+00  0.7000E+00  0.7000E+00
     -0.005  0.0000E+00  0.0000E+00  0.7000E+00  0.7000E+00
