    2    2   10    2
  0.5000000E+03  0.1000000E-08  0.1000000E-08  0.1000000E-08  0.5000000E-15
  1.000000000000000E-004
  CAR 
 unknown system                          
   10    1    7
 
  0.0000000E+00  0.0000000E+00  0.0000000E+00  0.1000000E+01
   1      -29.182229    -29.182237
   2      -13.951484    -13.951462
   3      -11.631243    -11.631184
   4      -11.631243    -11.631184
   5       -8.925517     -8.925510
   6       -2.004956     -2.004881
   7       -2.004956     -2.004881
