<?xml version="1.0" encoding="ISO-8859-1"?>
<modeling>
 <generator>
  <i name="program" type="string">vasp </i>
  <i name="version" type="string">5.2.12  </i>
  <i name="subversion" type="string">11Nov11 complex                                                      parallel </i>
  <i name="platform" type="string">LinuxIFC </i>
  <i name="date" type="string">2012 10 31 </i>
  <i name="time" type="string">12:21:05 </i>
 </generator>
 <incar>
  <i type="string" name="PREC">normal</i>
  <i type="int" name="ISPIN">     2</i>
  <i type="int" name="IBRION">     2</i>
  <i type="int" name="NSW">    10</i>
  <i name="ENCUT">    350.00000000</i>
  <i type="int" name="NBANDS">     7</i>
  <i type="int" name="ISMEAR">     0</i>
 </incar>
 <kpoints>
  <generation param="Monkhorst-Pack">
   <v type="int" name="divisions">       1        1        1 </v>
   <v name="usershift">      0.00000000       0.00000000       0.00000000 </v>
   <v name="genvec1">      1.00000000       0.00000000       0.00000000 </v>
   <v name="genvec2">      0.00000000       1.00000000       0.00000000 </v>
   <v name="genvec3">      0.00000000       0.00000000       1.00000000 </v>
   <v name="shift">      0.00000000       0.00000000       0.00000000 </v>
  </generation>
  <varray name="kpointlist" >
   <v>       0.00000000       0.00000000       0.00000000 </v>
  </varray>
  <varray name="weights" >
   <v>       1.00000000 </v>
  </varray>
 </kpoints>
 <parameters>
  <separator name="general" >
   <i type="string" name="SYSTEM">unknown system</i>
   <i type="logical" name="LCOMPAT"> F  </i>
  </separator>
  <separator name="electronic" >
   <i type="string" name="PREC">normal</i>
   <i name="ENMAX">    350.00000000</i>
   <i name="ENAUG">    644.87300000</i>
   <i name="EDIFF">      0.00010000</i>
   <i type="int" name="IALGO">    38</i>
   <i type="int" name="IWAVPR">    11</i>
   <i type="int" name="NBANDS">     7</i>
   <i name="NELECT">     10.00000000</i>
   <i type="int" name="TURBO">     0</i>
   <i type="int" name="IRESTART">     0</i>
   <i type="int" name="NREBOOT">     0</i>
   <i type="int" name="NMIN">     0</i>
   <i name="EREF">      0.00000000</i>
   <separator name="electronic smearing" >
    <i type="int" name="ISMEAR">     0</i>
    <i name="SIGMA">      0.20000000</i>
    <i name="KSPACING">      0.50000000</i>
    <i type="logical" name="KGAMMA"> T  </i>
   </separator>
   <separator name="electronic projectors" >
    <i type="logical" name="LREAL"> F  </i>
    <v name="ROPT">      0.00000000      0.00000000</v>
    <i type="int" name="LMAXPAW">  -100</i>
    <i type="int" name="LMAXMIX">     2</i>
    <i type="logical" name="NLSPLINE"> F  </i>
   </separator>
   <separator name="electronic startup" >
    <i type="int" name="ISTART">     0</i>
    <i type="int" name="ICHARG">     2</i>
    <i type="int" name="INIWAV">     1</i>
   </separator>
   <separator name="electronic spin" >
    <i type="int" name="ISPIN">     2</i>
    <i type="logical" name="LNONCOLLINEAR"> F  </i>
    <v name="MAGMOM">      1.00000000      1.00000000</v>
    <i name="NUPDOWN">     -1.00000000</i>
    <i type="logical" name="LSORBIT"> F  </i>
    <v name="SAXIS">      0.00000000      0.00000000      1.00000000</v>
    <i type="logical" name="LSPIRAL"> F  </i>
    <v name="QSPIRAL">      0.00000000      0.00000000      0.00000000</v>
    <i type="logical" name="LZEROZ"> F  </i>
   </separator>
   <separator name="electronic exchange-correlation" >
    <i type="logical" name="LASPH"> F  </i>
    <i type="logical" name="LMETAGGA"> F  </i>
   </separator>
   <separator name="electronic convergence" >
    <i type="int" name="NELM">    60</i>
    <i type="int" name="NELMDL">    -5</i>
    <i type="int" name="NELMIN">     2</i>
    <i name="ENINI">    350.00000000</i>
    <separator name="electronic convergence detail" >
     <i type="logical" name="LDIAG"> T  </i>
     <i type="logical" name="LSUBROT"> T  </i>
     <i name="WEIMIN">      0.00100000</i>
     <i name="EBREAK">      0.00000357</i>
     <i name="DEPER">      0.30000000</i>
     <i type="int" name="NRMM">     4</i>
     <i name="TIME">      0.40000000</i>
    </separator>
   </separator>
   <separator name="electronic mixer" >
    <i name="AMIX">      0.40000000</i>
    <i name="BMIX">      1.00000000</i>
    <i name="AMIN">      0.10000000</i>
    <i name="AMIX_MAG">      1.60000000</i>
    <i name="BMIX_MAG">      1.00000000</i>
    <separator name="electronic mixer details" >
     <i type="int" name="IMIX">     4</i>
     <i type="int" name="MAXMIX">   -45</i>
     <i name="WC">    100.00000000</i>
     <i type="int" name="INIMIX">     1</i>
     <i type="int" name="MIXPRE">     1</i>
     <i type="int" name="MREMOVE">     5</i>
    </separator>
   </separator>
   <separator name="electronic dipolcorrection" >
    <i type="logical" name="LDIPOL"> F  </i>
    <i type="logical" name="LMONO"> F  </i>
    <i type="int" name="IDIPOL">     0</i>
    <i name="EPSILON">      1.00000000</i>
    <v name="DIPOL">   -100.00000000   -100.00000000   -100.00000000</v>
    <i name="EFIELD">      0.00000000</i>
   </separator>
  </separator>
  <separator name="grids" >
   <i type="int" name="NGX">    48</i>
   <i type="int" name="NGY">    48</i>
   <i type="int" name="NGZ">    48</i>
   <i type="int" name="NGXF">    96</i>
   <i type="int" name="NGYF">    96</i>
   <i type="int" name="NGZF">    96</i>
   <i type="logical" name="ADDGRID"> F  </i>
  </separator>
  <separator name="ionic" >
   <i type="int" name="NSW">    10</i>
   <i type="int" name="IBRION">     2</i>
   <i type="int" name="ISIF">     2</i>
   <i name="PSTRESS">      0.00000000</i>
   <i name="EDIFFG">      0.00100000</i>
   <i type="int" name="NFREE">     1</i>
   <i name="POTIM">      0.50000000</i>
   <i name="SMASS">     -3.00000000</i>
   <i name="SCALEE">      1.00000000</i>
  </separator>
  <separator name="ionic md" >
   <i name="TEBEG">      0.00010000</i>
   <i name="TEEND">      0.00010000</i>
   <i type="int" name="NBLOCK">     1</i>
   <i type="int" name="KBLOCK">    10</i>
   <i type="int" name="NPACO">   256</i>
   <i name="APACO">     16.00000000</i>
  </separator>
  <separator name="symmetry" >
   <i type="int" name="ISYM">     2</i>
   <i name="SYMPREC">      0.00001000</i>
  </separator>
  <separator name="dos" >
   <i type="logical" name="LORBIT"> F  </i>
   <v name="RWIGS">     -1.00000000     -1.00000000</v>
   <i type="int" name="NEDOS">   301</i>
   <i name="EMIN">     10.00000000</i>
   <i name="EMAX">    -10.00000000</i>
   <i name="EFERMI">      0.00000000</i>
  </separator>
  <separator name="writing" >
   <i type="int" name="NWRITE">     2</i>
   <i type="logical" name="LWAVE"> T  </i>
   <i type="logical" name="LCHARG"> T  </i>
   <i type="logical" name="LPARD"> F  </i>
   <i type="logical" name="LVTOT"> F  </i>
   <i type="logical" name="LVHAR"> F  </i>
   <i type="logical" name="LELF"> F  </i>
   <i type="logical" name="LOPTICS"> F  </i>
   <v name="STM">      0.00000000      0.00000000      0.00000000      0.00000000      0.00000000      0.00000000      0.00000000</v>
  </separator>
  <separator name="performance" >
   <i type="int" name="NPAR">     1</i>
   <i type="int" name="NSIM">     4</i>
   <i type="int" name="NBLK">    -1</i>
   <i type="logical" name="LPLANE"> T  </i>
   <i type="logical" name="LSCALAPACK"> F  </i>
   <i type="logical" name="LSCAAWARE"> F  </i>
   <i type="logical" name="LSCALU"> F  </i>
   <i type="logical" name="LASYNC"> F  </i>
   <i type="logical" name="LORBITALREAL"> F  </i>
  </separator>
  <separator name="miscellaneous" >
   <i type="int" name="IDIOT">     3</i>
   <i type="logical" name="LMUSIC"> F  </i>
   <v name="POMASS">     12.01100000     16.00000000</v>
   <v name="DARWINR">      0.00000000      0.00000000</v>
   <v name="DARWINV">      1.00000000      1.00000000</v>
   <i type="logical" name="LCORR"> T  </i>
  </separator>
  <i type="logical" name="GGA_COMPAT"> T  </i>
  <i type="logical" name="LBERRY"> F  </i>
  <i type="int" name="ICORELEVEL">     0</i>
  <i type="logical" name="LDAU"> F  </i>
  <i type="int" name="I_CONSTRAINED_M">     0</i>
  <separator name="electronic exchange-correlation" >
   <i type="string" name="GGA">--</i>
   <i type="int" name="VOSKOWN">     0</i>
   <i type="logical" name="LHFCALC"> F  </i>
   <i type="string" name="PRECFOCK"></i>
   <i type="logical" name="LHFONE"> F  </i>
   <i type="logical" name="LRHFCALC"> F  </i>
   <i type="logical" name="LTHOMAS"> F  </i>
   <i type="logical" name="LMODELHF"> F  </i>
   <i name="ENCUT4O">     -1.00000000</i>
   <i type="int" name="EXXOEP">     0</i>
   <i type="int" name="FOURORBIT">     0</i>
   <i name="AEXX">      0.00000000</i>
   <i name="HFALPHA">      0.00000000</i>
   <i name="ALDAX">      1.00000000</i>
   <i name="AGGAX">      1.00000000</i>
   <i name="ALDAC">      1.00000000</i>
   <i name="AGGAC">      1.00000000</i>
   <i type="int" name="NKREDX">     1</i>
   <i type="int" name="NKREDY">     1</i>
   <i type="int" name="NKREDZ">     1</i>
   <i type="logical" name="SHIFTRED"> F  </i>
   <i type="logical" name="ODDONLY"> F  </i>
   <i type="logical" name="EVENONLY"> F  </i>
   <i type="int" name="LMAXFOCK">     0</i>
   <i type="int" name="NMAXFOCKAE">     0</i>
   <i type="logical" name="LFOCKAEDFT"> F  </i>
   <i name="HFSCREEN">      0.00000000</i>
   <i name="HFSCREENC">      0.00000000</i>
  </separator>
  <separator name="vdW DFT" >
   <i type="logical" name="LUSE_VDW"> F  </i>
   <i name="Zab_VDW">     -0.84910000</i>
   <i name="PARAM1">      0.12340000</i>
   <i name="PARAM2">      1.00000000</i>
   <i name="PARAM3">      0.00000000</i>
  </separator>
  <separator name="model GW" >
   <i type="int" name="MODEL_GW">     0</i>
   <i name="MODEL_EPS0">    300.00000000</i>
   <i name="MODEL_ALPHA">      1.00000000</i>
  </separator>
  <separator name="linear response parameters" >
   <i type="logical" name="LEPSILON"> F  </i>
   <i type="logical" name="LRPA"> F  </i>
   <i type="logical" name="LNABLA"> F  </i>
   <i type="logical" name="LVEL"> F  </i>
   <i type="int" name="KINTER">     0</i>
   <i name="CSHIFT">      0.10000000</i>
   <i name="OMEGAMAX">     -1.00000000</i>
  </separator>
  <separator name="orbital magnetization" >
   <i type="logical" name="NUCIND"> F  </i>
   <v name="MAGPOS">      0.00000000      0.00000000      0.00000000</v>
   <i type="logical" name="LNICSALL"> T  </i>
   <i type="logical" name="ORBITALMAG"> F  </i>
   <i type="logical" name="LMAGBLOCH"> F  </i>
   <i type="logical" name="LCHIMAG"> F  </i>
   <i type="logical" name="LGAUGE"> T  </i>
   <i type="int" name="MAGATOM">     0</i>
   <v name="MAGDIPOL">      0.00000000      0.00000000      0.00000000</v>
   <v name="AVECCONST">      0.00000000      0.00000000      0.00000000</v>
  </separator>
  <separator name="response functions" >
   <i type="logical" name="LADDER"> F  </i>
   <i type="logical" name="LHARTREE"> T  </i>
   <i type="int" name="IBSE">     0</i>
   <i type="logical" name="LTCTE"> F  </i>
   <i type="logical" name="LTETE"> F  </i>
   <i type="logical" name="LFXCEPS"> F  </i>
   <i type="logical" name="L2ORDER"> F  </i>
   <i type="logical" name="LUSEW"> F  </i>
   <i name="ENCUTGW">     -2.00000000</i>
   <i name="ENCUTGWSOFT">     -2.00000000</i>
   <i name="ENCUTLF">     -1.00000000</i>
   <i type="int" name="LMAXMP2">    -1</i>
   <i name="SCISSOR">      0.00000000</i>
   <i type="int" name="NOMEGA">     0</i>
   <i type="int" name="NOMEGAR">     0</i>
   <i type="int" name="NBANDSGW">    -1</i>
   <i type="int" name="NBANDSO">    -1</i>
   <i type="int" name="NBANDSV">    -1</i>
   <i name="OPTEMAX">      0.00000000</i>
   <i type="int" name="NELM">     1</i>
   <i type="int" name="DIM">     3</i>
   <i type="int" name="ANTIRES">     0</i>
   <i name="OMEGAMAX">    -30.00000000</i>
   <i name="OMEGATL">   -200.00000000</i>
   <i type="int" name="OMEGAGRID">     0</i>
   <i name="CSHIFT">     -0.10000000</i>
   <i type="logical" name="SELFENERGY"> F  </i>
   <i type="logical" name="LSPECTRAL"> F  </i>
   <i type="logical" name="ODDONLYGW"> F  </i>
   <i type="logical" name="EVENONLYGW"> F  </i>
   <i type="int" name="NKREDLFX">     1</i>
   <i type="int" name="NKREDLFY">     1</i>
   <i type="int" name="NKREDLFZ">     1</i>
   <i type="int" name="MAXMEM">  1800</i>
   <i type="int" name="TELESCOPE">     0</i>
  </separator>
 </parameters>
 <atominfo>
  <atoms>       2 </atoms>
  <types>       2 </types>
  <array name="atoms" >
   <dimension dim="1">ion</dimension>
   <field type="string">element</field>
   <field type="int">atomtype</field>
   <set>
    <rc><c>C </c><c>   1</c></rc>
    <rc><c>O </c><c>   2</c></rc>
   </set>
  </array>
  <array name="atomtypes" >
   <dimension dim="1">type</dimension>
   <field type="int">atomspertype</field>
   <field type="string">element</field>
   <field>mass</field>
   <field>valence</field>
   <field type="string">pseudopotential</field>
   <set>
    <rc><c>   1</c><c>C </c><c>     12.01100000</c><c>      4.00000000</c><c> PAW_PBE C 08Apr2002                    </c></rc>
    <rc><c>   1</c><c>O </c><c>     16.00000000</c><c>      6.00000000</c><c> PAW_PBE O 08Apr2002                    </c></rc>
   </set>
  </array>
 </atominfo>
 <structure name="initialpos" >
  <crystal>
   <varray name="basis" >
    <v>      10.00000000       0.00000000       0.00000000 </v>
    <v>       0.00000000      10.00000000       0.00000000 </v>
    <v>       0.00000000       0.00000000      10.00000000 </v>
   </varray>
   <i name="volume">   1000.00000000 </i>
   <varray name="rec_basis" >
    <v>       0.10000000       0.00000000       0.00000000 </v>
    <v>       0.00000000       0.10000000       0.00000000 </v>
    <v>       0.00000000       0.00000000       0.10000000 </v>
   </varray>
  </crystal>
  <varray name="positions" >
   <v>       0.50000000       0.50000000       0.44248300 </v>
   <v>       0.50000000       0.50000000       0.55751700 </v>
  </varray>
 </structure>
 <calculation>
  <scstep>
   <time name="dav">    1.41    1.41</time>
   <time name="total">    4.66    4.67</time>
   <energy>
    <i name="alphaZ">      0.43525486 </i>
    <i name="ewald">     97.12274071 </i>
    <i name="hartreedc">   -559.45604863 </i>
    <i name="XCdc">     40.10897853 </i>
    <i name="pawpsdc">    283.60202491 </i>
    <i name="pawaedc">   -286.58834186 </i>
    <i name="eentropy">     -0.03639116 </i>
    <i name="bandstr">    -85.05356669 </i>
    <i name="atom">    579.07123046 </i>
    <i name="e_fr_energy">     69.20588113 </i>
    <i name="e_wo_entrp">     69.24227230 </i>
    <i name="e_0_energy">     69.22407671 </i>
   </energy>
  </scstep>
  <scstep>
   <time name="dav">    1.62    1.62</time>
   <time name="total">    1.63    1.69</time>
   <energy>
    <i name="e_fr_energy">     -7.07615745 </i>
    <i name="e_wo_entrp">     -7.07615745 </i>
    <i name="e_0_energy">     -7.07615745 </i>
   </energy>
  </scstep>
  <scstep>
   <time name="dav">    1.35    1.35</time>
   <time name="total">    1.35    1.42</time>
   <energy>
    <i name="e_fr_energy">    -14.70079442 </i>
    <i name="e_wo_entrp">    -14.70079442 </i>
    <i name="e_0_energy">    -14.70079442 </i>
   </energy>
  </scstep>
  <scstep>
   <time name="dav">    1.54    1.54</time>
   <time name="total">    1.54    1.55</time>
   <energy>
    <i name="e_fr_energy">    -14.76238715 </i>
    <i name="e_wo_entrp">    -14.76238715 </i>
    <i name="e_0_energy">    -14.76238715 </i>
   </energy>
  </scstep>
  <scstep>
   <time name="dav">    1.39    1.39</time>
   <time name="total">    1.85    1.88</time>
   <energy>
    <i name="e_fr_energy">    -14.76242849 </i>
    <i name="e_wo_entrp">    -14.76242849 </i>
    <i name="e_0_energy">    -14.76242849 </i>
   </energy>
  </scstep>
  <scstep>
   <time name="dav">    0.99    0.99</time>
   <time name="total">    4.86    4.87</time>
   <energy>
    <i name="e_fr_energy">     -9.87929067 </i>
    <i name="e_wo_entrp">     -9.87929067 </i>
    <i name="e_0_energy">     -9.87929067 </i>
   </energy>
  </scstep>
  <scstep>
   <time name="dav">    1.44    1.44</time>
   <time name="total">    5.31    5.34</time>
   <energy>
    <i name="e_fr_energy">    -13.03197468 </i>
    <i name="e_wo_entrp">    -13.03197468 </i>
    <i name="e_0_energy">    -13.03197468 </i>
   </energy>
  </scstep>
  <scstep>
   <time name="dav">    1.56    1.56</time>
   <time name="total">    5.39    5.42</time>
   <energy>
    <i name="e_fr_energy">    -14.42299851 </i>
    <i name="e_wo_entrp">    -14.42299851 </i>
    <i name="e_0_energy">    -14.42299851 </i>
   </energy>
  </scstep>
  <scstep>
   <time name="dav">    1.16    1.16</time>
   <time name="total">    5.02    5.03</time>
   <energy>
    <i name="e_fr_energy">    -14.69870455 </i>
    <i name="e_wo_entrp">    -14.69870455 </i>
    <i name="e_0_energy">    -14.69870455 </i>
   </energy>
  </scstep>
  <scstep>
   <time name="dav">    1.44    1.44</time>
   <time name="total">    5.34    5.38</time>
   <energy>
    <i name="e_fr_energy">    -14.79940437 </i>
    <i name="e_wo_entrp">    -14.79940437 </i>
    <i name="e_0_energy">    -14.79940437 </i>
   </energy>
  </scstep>
  <scstep>
   <time name="dav">    1.41    1.42</time>
   <time name="total">    5.28    5.29</time>
   <energy>
    <i name="e_fr_energy">    -14.80147864 </i>
    <i name="e_wo_entrp">    -14.80147864 </i>
    <i name="e_0_energy">    -14.80147864 </i>
   </energy>
  </scstep>
  <scstep>
   <time name="dav">    1.31    1.31</time>
   <time name="total">    5.14    5.18</time>
   <energy>
    <i name="e_fr_energy">    -14.80381731 </i>
    <i name="e_wo_entrp">    -14.80381731 </i>
    <i name="e_0_energy">    -14.80381731 </i>
   </energy>
  </scstep>
  <scstep>
   <time name="dav">    1.41    1.41</time>
   <time name="total">    5.25    5.29</time>
   <energy>
    <i name="e_fr_energy">    -14.80563549 </i>
    <i name="e_wo_entrp">    -14.80563549 </i>
    <i name="e_0_energy">    -14.80563549 </i>
   </energy>
  </scstep>
  <scstep>
   <time name="dav">    1.37    1.37</time>
   <time name="total">    5.18    5.22</time>
   <energy>
    <i name="e_fr_energy">    -14.80624672 </i>
    <i name="e_wo_entrp">    -14.80624672 </i>
    <i name="e_0_energy">    -14.80624672 </i>
   </energy>
  </scstep>
  <scstep>
   <time name="dav">    1.35    1.35</time>
   <time name="total">    5.25    5.27</time>
   <energy>
    <i name="e_fr_energy">    -14.80713422 </i>
    <i name="e_wo_entrp">    -14.80713422 </i>
    <i name="e_0_energy">    -14.80713422 </i>
   </energy>
  </scstep>
  <scstep>
   <time name="dav">    1.39    1.39</time>
   <time name="total">    5.26    5.31</time>
   <energy>
    <i name="e_fr_energy">    -14.80732724 </i>
    <i name="e_wo_entrp">    -14.80732724 </i>
    <i name="e_0_energy">    -14.80732724 </i>
   </energy>
  </scstep>
  <scstep>
   <time name="dav">    0.99    0.99</time>
   <time name="total">    4.79    4.81</time>
   <energy>
    <i name="e_fr_energy">    -14.80753801 </i>
    <i name="e_wo_entrp">    -14.80753801 </i>
    <i name="e_0_energy">    -14.80753801 </i>
   </energy>
  </scstep>
  <scstep>
   <time name="dav">    0.63    0.63</time>
   <time name="total">    3.96    3.97</time>
   <energy>
    <i name="alphaZ">      0.43525486 </i>
    <i name="ewald">     97.12274071 </i>
    <i name="hartreedc">   -579.18323146 </i>
    <i name="XCdc">     40.97875595 </i>
    <i name="pawpsdc">    379.41004616 </i>
    <i name="pawaedc">   -382.39234325 </i>
    <i name="eentropy">      0.00000000 </i>
    <i name="bandstr">   -150.25006527 </i>
    <i name="atom">    579.07123046 </i>
    <i name="e_fr_energy">    -14.80761184 </i>
    <i name="e_wo_entrp">    -14.80761184 </i>
    <i name="e_0_energy">    -14.80761184 </i>
   </energy>
  </scstep>
  <parameters_embedded>
   <separator name="dft+d2" >
    <i type="logical" name="LVDW"> F  </i>
   </separator>
  </parameters_embedded>
  <structure>
   <crystal>
    <varray name="basis" >
     <v>      10.00000000       0.00000000       0.00000000 </v>
     <v>       0.00000000      10.00000000       0.00000000 </v>
     <v>       0.00000000       0.00000000      10.00000000 </v>
    </varray>
    <i name="volume">   1000.00000000 </i>
    <varray name="rec_basis" >
     <v>       0.10000000       0.00000000       0.00000000 </v>
     <v>       0.00000000       0.10000000       0.00000000 </v>
     <v>       0.00000000       0.00000000       0.10000000 </v>
    </varray>
   </crystal>
   <varray name="positions" >
    <v>       0.50000000       0.50000000       0.44248300 </v>
    <v>       0.50000000       0.50000000       0.55751700 </v>
   </varray>
  </structure>
  <varray name="forces" >
   <v>       0.00000000       0.00000000       0.72575379 </v>
   <v>       0.00000000       0.00000000      -0.72575379 </v>
  </varray>
  <varray name="stress" >
   <v>      -3.73600955       0.00000000       0.00000000 </v>
   <v>       0.00000000      -3.73600955       0.00000000 </v>
   <v>       0.00000000       0.00000000      -5.36899249 </v>
  </varray>
  <energy>
   <i name="e_fr_energy">    -14.80761184 </i>
   <i name="e_wo_entrp">    -14.80761184 </i>
   <i name="e_0_energy">      0.00000000 </i>
  </energy>
  <time name="totalsc">   86.23   87.32</time>
 </calculation>
 <calculation>
  <scstep>
   <time name="dav">    1.10    1.10</time>
   <time name="total">    5.36    5.36</time>
   <energy>
    <i name="alphaZ">      0.43525486 </i>
    <i name="ewald">    116.47885190 </i>
    <i name="hartreedc">   -590.11473100 </i>
    <i name="XCdc">     41.30692368 </i>
    <i name="pawpsdc">    379.40554376 </i>
    <i name="pawaedc">   -382.38774508 </i>
    <i name="eentropy">      0.00000000 </i>
    <i name="bandstr">   -158.75911677 </i>
    <i name="atom">    579.07123046 </i>
    <i name="e_fr_energy">    -14.56378819 </i>
    <i name="e_wo_entrp">    -14.56378819 </i>
    <i name="e_0_energy">    -14.56378819 </i>
   </energy>
  </scstep>
  <scstep>
   <time name="dav">    1.13    1.13</time>
   <time name="total">    5.32    5.32</time>
   <energy>
    <i name="e_fr_energy">    -14.55616867 </i>
    <i name="e_wo_entrp">    -14.55616867 </i>
    <i name="e_0_energy">    -14.55616867 </i>
   </energy>
  </scstep>
  <scstep>
   <time name="dav">    1.88    1.88</time>
   <time name="total">    6.05    6.07</time>
   <energy>
    <i name="e_fr_energy">    -14.54421164 </i>
    <i name="e_wo_entrp">    -14.54421164 </i>
    <i name="e_0_energy">    -14.54421164 </i>
   </energy>
  </scstep>
  <scstep>
   <time name="dav">    1.44    1.44</time>
   <time name="total">    5.62    5.64</time>
   <energy>
    <i name="e_fr_energy">    -14.54461691 </i>
    <i name="e_wo_entrp">    -14.54461691 </i>
    <i name="e_0_energy">    -14.54461691 </i>
   </energy>
  </scstep>
  <scstep>
   <time name="dav">    1.10    1.10</time>
   <time name="total">    5.35    5.36</time>
   <energy>
    <i name="e_fr_energy">    -14.54491550 </i>
    <i name="e_wo_entrp">    -14.54491550 </i>
    <i name="e_0_energy">    -14.54491550 </i>
   </energy>
  </scstep>
  <scstep>
   <time name="dav">    0.71    0.71</time>
   <time name="total">    4.89    4.91</time>
   <energy>
    <i name="e_fr_energy">    -14.54514113 </i>
    <i name="e_wo_entrp">    -14.54514113 </i>
    <i name="e_0_energy">    -14.54514113 </i>
   </energy>
  </scstep>
  <scstep>
   <time name="dav">    1.59    1.59</time>
   <time name="total">    6.24    6.26</time>
   <energy>
    <i name="e_fr_energy">    -14.54543133 </i>
    <i name="e_wo_entrp">    -14.54543133 </i>
    <i name="e_0_energy">    -14.54543133 </i>
   </energy>
  </scstep>
  <scstep>
   <time name="dav">    1.75    1.75</time>
   <time name="total">    6.59    6.88</time>
   <energy>
    <i name="e_fr_energy">    -14.54572493 </i>
    <i name="e_wo_entrp">    -14.54572493 </i>
    <i name="e_0_energy">    -14.54572493 </i>
   </energy>
  </scstep>
  <scstep>
   <time name="dav">    1.89    1.89</time>
   <time name="total">    6.72    6.74</time>
   <energy>
    <i name="e_fr_energy">    -14.54583748 </i>
    <i name="e_wo_entrp">    -14.54583748 </i>
    <i name="e_0_energy">    -14.54583748 </i>
   </energy>
  </scstep>
  <scstep>
   <time name="dav">    0.86    0.86</time>
   <time name="total">    4.99    5.08</time>
   <energy>
    <i name="alphaZ">      0.43525486 </i>
    <i name="ewald">    116.47885190 </i>
    <i name="hartreedc">   -594.50323216 </i>
    <i name="XCdc">     41.55754434 </i>
    <i name="pawpsdc">    404.73654952 </i>
    <i name="pawaedc">   -407.84425544 </i>
    <i name="eentropy">      0.00000000 </i>
    <i name="bandstr">   -154.47783907 </i>
    <i name="atom">    579.07123046 </i>
    <i name="e_fr_energy">    -14.54589560 </i>
    <i name="e_wo_entrp">    -14.54589560 </i>
    <i name="e_0_energy">    -14.54589560 </i>
   </energy>
  </scstep>
  <structure>
   <crystal>
    <varray name="basis" >
     <v>      10.00000000       0.00000000       0.00000000 </v>
     <v>       0.00000000      10.00000000       0.00000000 </v>
     <v>       0.00000000       0.00000000      10.00000000 </v>
    </varray>
    <i name="volume">   1000.00000000 </i>
    <varray name="rec_basis" >
     <v>       0.10000000       0.00000000       0.00000000 </v>
     <v>       0.00000000       0.10000000       0.00000000 </v>
     <v>       0.00000000       0.00000000       0.10000000 </v>
    </varray>
   </crystal>
   <varray name="positions" >
    <v>       0.50000000       0.50000000       0.44598423 </v>
    <v>       0.50000000       0.50000000       0.55401577 </v>
   </varray>
  </structure>
  <varray name="forces" >
   <v>       0.00000000       0.00000000      -8.99325700 </v>
   <v>       0.00000000       0.00000000       8.99325700 </v>
  </varray>
  <varray name="stress" >
   <v>      -3.70953061       0.00000000       0.00000000 </v>
   <v>       0.00000000      -3.70953061       0.00000000 </v>
   <v>       0.00000000       0.00000000      11.59136984 </v>
  </varray>
  <energy>
   <i name="e_fr_energy">    -14.54589560 </i>
   <i name="e_wo_entrp">    -14.54589560 </i>
   <i name="e_0_energy">      0.00000000 </i>
  </energy>
  <time name="totalsc">   64.11   64.67</time>
 </calculation>
 <calculation>
  <scstep>
   <time name="dav">    1.25    1.25</time>
   <time name="total">    5.99    5.99</time>
   <energy>
    <i name="alphaZ">      0.43525486 </i>
    <i name="ewald">     98.87489725 </i>
    <i name="hartreedc">   -584.44798149 </i>
    <i name="XCdc">     41.25396272 </i>
    <i name="pawpsdc">    404.74866216 </i>
    <i name="pawaedc">   -407.85662264 </i>
    <i name="eentropy">      0.00000000 </i>
    <i name="bandstr">   -146.91177958 </i>
    <i name="atom">    579.07123046 </i>
    <i name="e_fr_energy">    -14.83237625 </i>
    <i name="e_wo_entrp">    -14.83237625 </i>
    <i name="e_0_energy">    -14.83237625 </i>
   </energy>
  </scstep>
  <scstep>
   <time name="dav">    1.62    1.62</time>
   <time name="total">    6.35    6.36</time>
   <energy>
    <i name="e_fr_energy">    -14.81549621 </i>
    <i name="e_wo_entrp">    -14.81549621 </i>
    <i name="e_0_energy">    -14.81549621 </i>
   </energy>
  </scstep>
  <scstep>
   <time name="dav">    1.65    1.65</time>
   <time name="total">    6.38    6.40</time>
   <energy>
    <i name="e_fr_energy">    -14.80854296 </i>
    <i name="e_wo_entrp">    -14.80854295 </i>
    <i name="e_0_energy">    -14.80854295 </i>
   </energy>
  </scstep>
  <scstep>
   <time name="dav">    1.71    1.71</time>
   <time name="total">    6.52    6.53</time>
   <energy>
    <i name="e_fr_energy">    -14.80913790 </i>
    <i name="e_wo_entrp">    -14.80913790 </i>
    <i name="e_0_energy">    -14.80913790 </i>
   </energy>
  </scstep>
  <scstep>
   <time name="dav">    0.82    0.82</time>
   <time name="total">    5.61    5.62</time>
   <energy>
    <i name="e_fr_energy">    -14.80931967 </i>
    <i name="e_wo_entrp">    -14.80931967 </i>
    <i name="e_0_energy">    -14.80931967 </i>
   </energy>
  </scstep>
  <scstep>
   <time name="dav">    1.20    1.20</time>
   <time name="total">    5.99    6.01</time>
   <energy>
    <i name="e_fr_energy">    -14.80963424 </i>
    <i name="e_wo_entrp">    -14.80963424 </i>
    <i name="e_0_energy">    -14.80963424 </i>
   </energy>
  </scstep>
  <scstep>
   <time name="dav">    0.78    0.78</time>
   <time name="total">    5.58    5.61</time>
   <energy>
    <i name="e_fr_energy">    -14.80979297 </i>
    <i name="e_wo_entrp">    -14.80979297 </i>
    <i name="e_0_energy">    -14.80979297 </i>
   </energy>
  </scstep>
  <scstep>
   <time name="dav">    1.24    1.24</time>
   <time name="total">    6.02    6.03</time>
   <energy>
    <i name="e_fr_energy">    -14.80994791 </i>
    <i name="e_wo_entrp">    -14.80994791 </i>
    <i name="e_0_energy">    -14.80994791 </i>
   </energy>
  </scstep>
  <scstep>
   <time name="dav">    0.79    0.79</time>
   <time name="total">    4.93    5.06</time>
   <energy>
    <i name="alphaZ">      0.43525486 </i>
    <i name="ewald">     98.87489725 </i>
    <i name="hartreedc">   -580.58617062 </i>
    <i name="XCdc">     41.03072000 </i>
    <i name="pawpsdc">    381.62830165 </i>
    <i name="pawaedc">   -384.62094375 </i>
    <i name="eentropy">      0.00000000 </i>
    <i name="bandstr">   -150.64329268 </i>
    <i name="atom">    579.07123046 </i>
    <i name="e_fr_energy">    -14.81000282 </i>
    <i name="e_wo_entrp">    -14.81000282 </i>
    <i name="e_0_energy">    -14.81000282 </i>
   </energy>
  </scstep>
  <structure>
   <crystal>
    <varray name="basis" >
     <v>      10.00000000       0.00000000       0.00000000 </v>
     <v>       0.00000000      10.00000000       0.00000000 </v>
     <v>       0.00000000       0.00000000      10.00000000 </v>
    </varray>
    <i name="volume">   1000.00000000 </i>
    <varray name="rec_basis" >
     <v>       0.10000000       0.00000000       0.00000000 </v>
     <v>       0.00000000       0.10000000       0.00000000 </v>
     <v>       0.00000000       0.00000000       0.10000000 </v>
    </varray>
   </crystal>
   <varray name="positions" >
    <v>       0.50000000       0.50000000       0.44281870 </v>
    <v>       0.50000000       0.50000000       0.55718130 </v>
   </varray>
  </structure>
  <varray name="forces" >
   <v>       0.00000000       0.00000000      -0.01393454 </v>
   <v>       0.00000000       0.00000000       0.01393454 </v>
  </varray>
  <varray name="stress" >
   <v>      -3.73538270       0.00000000       0.00000000 </v>
   <v>       0.00000000      -3.73538270       0.00000000 </v>
   <v>       0.00000000       0.00000000      -4.01177661 </v>
  </varray>
  <energy>
   <i name="e_fr_energy">    -14.81000282 </i>
   <i name="e_wo_entrp">    -14.81000282 </i>
   <i name="e_0_energy">      0.00000000 </i>
  </energy>
  <time name="totalsc">   59.87   60.29</time>
  <eigenvalues>
   <array>
    <dimension dim="1">band</dimension>
    <dimension dim="2">kpoint</dimension>
    <dimension dim="3">spin</dimension>
    <field>eigene</field>
    <field>occ</field>
    <set>
     <set comment="spin 1">
      <set comment="kpoint 1">
       <r>  -29.1822    1.0000 </r>
       <r>  -13.9515    1.0000 </r>
       <r>  -11.6312    1.0000 </r>
       <r>  -11.6312    1.0000 </r>
       <r>   -8.9255    1.0000 </r>
       <r>   -2.0050    0.0000 </r>
       <r>   -2.0050    0.0000 </r>
      </set>
     </set>
     <set comment="spin 2">
      <set comment="kpoint 1">
       <r>  -29.1822    1.0000 </r>
       <r>  -13.9515    1.0000 </r>
       <r>  -11.6312    1.0000 </r>
       <r>  -11.6312    1.0000 </r>
       <r>   -8.9255    1.0000 </r>
       <r>   -2.0049    0.0000 </r>
       <r>   -2.0049    0.0000 </r>
      </set>
     </set>
    </set>
   </array>
  </eigenvalues>
  <separator name="orbital magnetization" >
   <v name="MAGDIPOLOUT">      0.00000000      0.00000000      0.00000000</v>
  </separator>
  <dos>
   <i name="efermi">     -8.00625731 </i>
   <total>
    <array>
     <dimension dim="1">gridpoints</dimension>
     <dimension dim="2">spin</dimension>
     <field>energy</field>
     <field>total</field>
     <field>integrated</field>
     <set>
      <set comment="spin 1">
       <r>   -31.1822     0.0000     0.0000 </r>
       <r>   -31.0783     0.0000     0.0000 </r>
       <r>   -30.9744     0.0000     0.0000 </r>
       <r>   -30.8705     0.0000     0.0000 </r>
       <r>   -30.7665     0.0000     0.0000 </r>
       <r>   -30.6626     0.0000     0.0000 </r>
       <r>   -30.5587     0.0000     0.0000 </r>
       <r>   -30.4548     0.0000     0.0000 </r>
       <r>   -30.3508     0.0000     0.0000 </r>
       <r>   -30.2469     0.0000     0.0000 </r>
       <r>   -30.1430     0.0000     0.0000 </r>
       <r>   -30.0391     0.0000     0.0000 </r>
       <r>   -29.9351     0.0000     0.0000 </r>
       <r>   -29.8312     0.0000     0.0000 </r>
       <r>   -29.7273     0.0005     0.0001 </r>
       <r>   -29.6234     0.0082     0.0009 </r>
       <r>   -29.5194     0.0736     0.0086 </r>
       <r>   -29.4155     0.3941     0.0495 </r>
       <r>   -29.3116     1.2572     0.1802 </r>
       <r>   -29.2077     2.3907     0.4286 </r>
       <r>   -29.1037     2.7128     0.7105 </r>
       <r>   -28.9998     1.8370     0.9014 </r>
       <r>   -28.8959     0.7420     0.9785 </r>
       <r>   -28.7920     0.1786     0.9971 </r>
       <r>   -28.6880     0.0256     0.9998 </r>
       <r>   -28.5841     0.0022     1.0000 </r>
       <r>   -28.4802     0.0001     1.0000 </r>
       <r>   -28.3763     0.0000     1.0000 </r>
       <r>   -28.2724     0.0000     1.0000 </r>
       <r>   -28.1684     0.0000     1.0000 </r>
       <r>   -28.0645     0.0000     1.0000 </r>
       <r>   -27.9606     0.0000     1.0000 </r>
       <r>   -27.8567     0.0000     1.0000 </r>
       <r>   -27.7527     0.0000     1.0000 </r>
       <r>   -27.6488     0.0000     1.0000 </r>
       <r>   -27.5449     0.0000     1.0000 </r>
       <r>   -27.4410     0.0000     1.0000 </r>
       <r>   -27.3370     0.0000     1.0000 </r>
       <r>   -27.2331     0.0000     1.0000 </r>
       <r>   -27.1292     0.0000     1.0000 </r>
       <r>   -27.0253     0.0000     1.0000 </r>
       <r>   -26.9213     0.0000     1.0000 </r>
       <r>   -26.8174     0.0000     1.0000 </r>
       <r>   -26.7135     0.0000     1.0000 </r>
       <r>   -26.6096     0.0000     1.0000 </r>
       <r>   -26.5056     0.0000     1.0000 </r>
       <r>   -26.4017     0.0000     1.0000 </r>
       <r>   -26.2978     0.0000     1.0000 </r>
       <r>   -26.1939     0.0000     1.0000 </r>
       <r>   -26.0899     0.0000     1.0000 </r>
       <r>   -25.9860     0.0000     1.0000 </r>
       <r>   -25.8821     0.0000     1.0000 </r>
       <r>   -25.7782     0.0000     1.0000 </r>
       <r>   -25.6742     0.0000     1.0000 </r>
       <r>   -25.5703     0.0000     1.0000 </r>
       <r>   -25.4664     0.0000     1.0000 </r>
       <r>   -25.3625     0.0000     1.0000 </r>
       <r>   -25.2585     0.0000     1.0000 </r>
       <r>   -25.1546     0.0000     1.0000 </r>
       <r>   -25.0507     0.0000     1.0000 </r>
       <r>   -24.9468     0.0000     1.0000 </r>
       <r>   -24.8428     0.0000     1.0000 </r>
       <r>   -24.7389     0.0000     1.0000 </r>
       <r>   -24.6350     0.0000     1.0000 </r>
       <r>   -24.5311     0.0000     1.0000 </r>
       <r>   -24.4271     0.0000     1.0000 </r>
       <r>   -24.3232     0.0000     1.0000 </r>
       <r>   -24.2193     0.0000     1.0000 </r>
       <r>   -24.1154     0.0000     1.0000 </r>
       <r>   -24.0114     0.0000     1.0000 </r>
       <r>   -23.9075     0.0000     1.0000 </r>
       <r>   -23.8036     0.0000     1.0000 </r>
       <r>   -23.6997     0.0000     1.0000 </r>
       <r>   -23.5957     0.0000     1.0000 </r>
       <r>   -23.4918     0.0000     1.0000 </r>
       <r>   -23.3879     0.0000     1.0000 </r>
       <r>   -23.2840     0.0000     1.0000 </r>
       <r>   -23.1800     0.0000     1.0000 </r>
       <r>   -23.0761     0.0000     1.0000 </r>
       <r>   -22.9722     0.0000     1.0000 </r>
       <r>   -22.8683     0.0000     1.0000 </r>
       <r>   -22.7644     0.0000     1.0000 </r>
       <r>   -22.6604     0.0000     1.0000 </r>
       <r>   -22.5565     0.0000     1.0000 </r>
       <r>   -22.4526     0.0000     1.0000 </r>
       <r>   -22.3487     0.0000     1.0000 </r>
       <r>   -22.2447     0.0000     1.0000 </r>
       <r>   -22.1408     0.0000     1.0000 </r>
       <r>   -22.0369     0.0000     1.0000 </r>
       <r>   -21.9330     0.0000     1.0000 </r>
       <r>   -21.8290     0.0000     1.0000 </r>
       <r>   -21.7251     0.0000     1.0000 </r>
       <r>   -21.6212     0.0000     1.0000 </r>
       <r>   -21.5173     0.0000     1.0000 </r>
       <r>   -21.4133     0.0000     1.0000 </r>
       <r>   -21.3094     0.0000     1.0000 </r>
       <r>   -21.2055     0.0000     1.0000 </r>
       <r>   -21.1016     0.0000     1.0000 </r>
       <r>   -20.9976     0.0000     1.0000 </r>
       <r>   -20.8937     0.0000     1.0000 </r>
       <r>   -20.7898     0.0000     1.0000 </r>
       <r>   -20.6859     0.0000     1.0000 </r>
       <r>   -20.5819     0.0000     1.0000 </r>
       <r>   -20.4780     0.0000     1.0000 </r>
       <r>   -20.3741     0.0000     1.0000 </r>
       <r>   -20.2702     0.0000     1.0000 </r>
       <r>   -20.1662     0.0000     1.0000 </r>
       <r>   -20.0623     0.0000     1.0000 </r>
       <r>   -19.9584     0.0000     1.0000 </r>
       <r>   -19.8545     0.0000     1.0000 </r>
       <r>   -19.7505     0.0000     1.0000 </r>
       <r>   -19.6466     0.0000     1.0000 </r>
       <r>   -19.5427     0.0000     1.0000 </r>
       <r>   -19.4388     0.0000     1.0000 </r>
       <r>   -19.3348     0.0000     1.0000 </r>
       <r>   -19.2309     0.0000     1.0000 </r>
       <r>   -19.1270     0.0000     1.0000 </r>
       <r>   -19.0231     0.0000     1.0000 </r>
       <r>   -18.9191     0.0000     1.0000 </r>
       <r>   -18.8152     0.0000     1.0000 </r>
       <r>   -18.7113     0.0000     1.0000 </r>
       <r>   -18.6074     0.0000     1.0000 </r>
       <r>   -18.5034     0.0000     1.0000 </r>
       <r>   -18.3995     0.0000     1.0000 </r>
       <r>   -18.2956     0.0000     1.0000 </r>
       <r>   -18.1917     0.0000     1.0000 </r>
       <r>   -18.0877     0.0000     1.0000 </r>
       <r>   -17.9838     0.0000     1.0000 </r>
       <r>   -17.8799     0.0000     1.0000 </r>
       <r>   -17.7760     0.0000     1.0000 </r>
       <r>   -17.6720     0.0000     1.0000 </r>
       <r>   -17.5681     0.0000     1.0000 </r>
       <r>   -17.4642     0.0000     1.0000 </r>
       <r>   -17.3603     0.0000     1.0000 </r>
       <r>   -17.2564     0.0000     1.0000 </r>
       <r>   -17.1524     0.0000     1.0000 </r>
       <r>   -17.0485     0.0000     1.0000 </r>
       <r>   -16.9446     0.0000     1.0000 </r>
       <r>   -16.8407     0.0000     1.0000 </r>
       <r>   -16.7367     0.0000     1.0000 </r>
       <r>   -16.6328     0.0000     1.0000 </r>
       <r>   -16.5289     0.0000     1.0000 </r>
       <r>   -16.4250     0.0000     1.0000 </r>
       <r>   -16.3210     0.0000     1.0000 </r>
       <r>   -16.2171     0.0000     1.0000 </r>
       <r>   -16.1132     0.0000     1.0000 </r>
       <r>   -16.0093     0.0000     1.0000 </r>
       <r>   -15.9053     0.0000     1.0000 </r>
       <r>   -15.8014     0.0000     1.0000 </r>
       <r>   -15.6975     0.0000     1.0000 </r>
       <r>   -15.5936     0.0000     1.0000 </r>
       <r>   -15.4896     0.0000     1.0000 </r>
       <r>   -15.3857     0.0000     1.0000 </r>
       <r>   -15.2818     0.0000     1.0000 </r>
       <r>   -15.1779     0.0000     1.0000 </r>
       <r>   -15.0739     0.0000     1.0000 </r>
       <r>   -14.9700     0.0000     1.0000 </r>
       <r>   -14.8661     0.0000     1.0000 </r>
       <r>   -14.7622     0.0000     1.0000 </r>
       <r>   -14.6582     0.0000     1.0000 </r>
       <r>   -14.5543     0.0001     1.0000 </r>
       <r>   -14.4504     0.0019     1.0002 </r>
       <r>   -14.3465     0.0231     1.0026 </r>
       <r>   -14.2425     0.1653     1.0198 </r>
       <r>   -14.1386     0.7033     1.0929 </r>
       <r>   -14.0347     1.7827     1.2781 </r>
       <r>   -13.9308     2.6951     1.5582 </r>
       <r>   -13.8268     2.4316     1.8109 </r>
       <r>   -13.7229     1.3090     1.9470 </r>
       <r>   -13.6190     0.4202     1.9906 </r>
       <r>   -13.5151     0.0803     1.9990 </r>
       <r>   -13.4111     0.0091     1.9999 </r>
       <r>   -13.3072     0.0006     2.0000 </r>
       <r>   -13.2033     0.0000     2.0000 </r>
       <r>   -13.0994     0.0000     2.0000 </r>
       <r>   -12.9954     0.0000     2.0000 </r>
       <r>   -12.8915     0.0000     2.0000 </r>
       <r>   -12.7876     0.0000     2.0000 </r>
       <r>   -12.6837     0.0000     2.0000 </r>
       <r>   -12.5797     0.0000     2.0000 </r>
       <r>   -12.4758     0.0000     2.0000 </r>
       <r>   -12.3719     0.0000     2.0000 </r>
       <r>   -12.2680     0.0001     2.0000 </r>
       <r>   -12.1640     0.0015     2.0002 </r>
       <r>   -12.0601     0.0217     2.0024 </r>
       <r>   -11.9562     0.1843     2.0216 </r>
       <r>   -11.8523     0.9285     2.1181 </r>
       <r>   -11.7484     2.7862     2.4076 </r>
       <r>   -11.6444     4.9854     2.9257 </r>
       <r>   -11.5405     5.3227     3.4789 </r>
       <r>   -11.4366     3.3913     3.8313 </r>
       <r>   -11.3327     1.2887     3.9653 </r>
       <r>   -11.2287     0.2917     3.9956 </r>
       <r>   -11.1248     0.0393     3.9997 </r>
       <r>   -11.0209     0.0031     4.0000 </r>
       <r>   -10.9170     0.0001     4.0000 </r>
       <r>   -10.8130     0.0000     4.0000 </r>
       <r>   -10.7091     0.0000     4.0000 </r>
       <r>   -10.6052     0.0000     4.0000 </r>
       <r>   -10.5013     0.0000     4.0000 </r>
       <r>   -10.3973     0.0000     4.0000 </r>
       <r>   -10.2934     0.0000     4.0000 </r>
       <r>   -10.1895     0.0000     4.0000 </r>
       <r>   -10.0856     0.0000     4.0000 </r>
       <r>    -9.9816     0.0000     4.0000 </r>
       <r>    -9.8777     0.0000     4.0000 </r>
       <r>    -9.7738     0.0000     4.0000 </r>
       <r>    -9.6699     0.0000     4.0000 </r>
       <r>    -9.5659     0.0000     4.0000 </r>
       <r>    -9.4620     0.0007     4.0001 </r>
       <r>    -9.3581     0.0100     4.0011 </r>
       <r>    -9.2542     0.0862     4.0101 </r>
       <r>    -9.1502     0.4423     4.0560 </r>
       <r>    -9.0463     1.3517     4.1965 </r>
       <r>    -8.9424     2.4634     4.4525 </r>
       <r>    -8.8385     2.6788     4.7309 </r>
       <r>    -8.7345     1.7383     4.9116 </r>
       <r>    -8.6306     0.6728     4.9815 </r>
       <r>    -8.5267     0.1551     4.9976 </r>
       <r>    -8.4228     0.0213     4.9998 </r>
       <r>    -8.3188     0.0017     5.0000 </r>
       <r>    -8.2149     0.0001     5.0000 </r>
       <r>    -8.1110     0.0000     5.0000 </r>
       <r>    -8.0071     0.0000     5.0000 </r>
       <r>    -7.9031     0.0000     5.0000 </r>
       <r>    -7.7992     0.0000     5.0000 </r>
       <r>    -7.6953     0.0000     5.0000 </r>
       <r>    -7.5914     0.0000     5.0000 </r>
       <r>    -7.4874     0.0000     5.0000 </r>
       <r>    -7.3835     0.0000     5.0000 </r>
       <r>    -7.2796     0.0000     5.0000 </r>
       <r>    -7.1757     0.0000     5.0000 </r>
       <r>    -7.0717     0.0000     5.0000 </r>
       <r>    -6.9678     0.0000     5.0000 </r>
       <r>    -6.8639     0.0000     5.0000 </r>
       <r>    -6.7600     0.0000     5.0000 </r>
       <r>    -6.6561     0.0000     5.0000 </r>
       <r>    -6.5521     0.0000     5.0000 </r>
       <r>    -6.4482     0.0000     5.0000 </r>
       <r>    -6.3443     0.0000     5.0000 </r>
       <r>    -6.2404     0.0000     5.0000 </r>
       <r>    -6.1364     0.0000     5.0000 </r>
       <r>    -6.0325     0.0000     5.0000 </r>
       <r>    -5.9286     0.0000     5.0000 </r>
       <r>    -5.8247     0.0000     5.0000 </r>
       <r>    -5.7207     0.0000     5.0000 </r>
       <r>    -5.6168     0.0000     5.0000 </r>
       <r>    -5.5129     0.0000     5.0000 </r>
       <r>    -5.4090     0.0000     5.0000 </r>
       <r>    -5.3050     0.0000     5.0000 </r>
       <r>    -5.2011     0.0000     5.0000 </r>
       <r>    -5.0972     0.0000     5.0000 </r>
       <r>    -4.9933     0.0000     5.0000 </r>
       <r>    -4.8893     0.0000     5.0000 </r>
       <r>    -4.7854     0.0000     5.0000 </r>
       <r>    -4.6815     0.0000     5.0000 </r>
       <r>    -4.5776     0.0000     5.0000 </r>
       <r>    -4.4736     0.0000     5.0000 </r>
       <r>    -4.3697     0.0000     5.0000 </r>
       <r>    -4.2658     0.0000     5.0000 </r>
       <r>    -4.1619     0.0000     5.0000 </r>
       <r>    -4.0579     0.0000     5.0000 </r>
       <r>    -3.9540     0.0000     5.0000 </r>
       <r>    -3.8501     0.0000     5.0000 </r>
       <r>    -3.7462     0.0000     5.0000 </r>
       <r>    -3.6422     0.0000     5.0000 </r>
       <r>    -3.5383     0.0000     5.0000 </r>
       <r>    -3.4344     0.0000     5.0000 </r>
       <r>    -3.3305     0.0000     5.0000 </r>
       <r>    -3.2265     0.0000     5.0000 </r>
       <r>    -3.1226     0.0000     5.0000 </r>
       <r>    -3.0187     0.0000     5.0000 </r>
       <r>    -2.9148     0.0000     5.0000 </r>
       <r>    -2.8108     0.0000     5.0000 </r>
       <r>    -2.7069     0.0000     5.0000 </r>
       <r>    -2.6030     0.0002     5.0000 </r>
       <r>    -2.4991     0.0044     5.0005 </r>
       <r>    -2.3951     0.0512     5.0058 </r>
       <r>    -2.2912     0.3575     5.0429 </r>
       <r>    -2.1873     1.4850     5.1973 </r>
       <r>    -2.0834     3.6754     5.5792 </r>
       <r>    -1.9794     5.4260     6.1431 </r>
       <r>    -1.8755     4.7803     6.6399 </r>
       <r>    -1.7716     2.5128     6.9011 </r>
       <r>    -1.6677     0.7875     6.9829 </r>
       <r>    -1.5637     0.1470     6.9982 </r>
       <r>    -1.4598     0.0163     6.9999 </r>
       <r>    -1.3559     0.0011     7.0000 </r>
       <r>    -1.2520     0.0000     7.0000 </r>
       <r>    -1.1481     0.0000     7.0000 </r>
       <r>    -1.0441     0.0000     7.0000 </r>
       <r>    -0.9402     0.0000     7.0000 </r>
       <r>    -0.8363     0.0000     7.0000 </r>
       <r>    -0.7324     0.0000     7.0000 </r>
       <r>    -0.6284     0.0000     7.0000 </r>
       <r>    -0.5245     0.0000     7.0000 </r>
       <r>    -0.4206     0.0000     7.0000 </r>
       <r>    -0.3167     0.0000     7.0000 </r>
       <r>    -0.2127     0.0000     7.0000 </r>
       <r>    -0.1088     0.0000     7.0000 </r>
       <r>    -0.0049     0.0000     7.0000 </r>
      </set>
      <set comment="spin 2">
       <r>   -31.1822     0.0000     0.0000 </r>
       <r>   -31.0783     0.0000     0.0000 </r>
       <r>   -30.9744     0.0000     0.0000 </r>
       <r>   -30.8705     0.0000     0.0000 </r>
       <r>   -30.7665     0.0000     0.0000 </r>
       <r>   -30.6626     0.0000     0.0000 </r>
       <r>   -30.5587     0.0000     0.0000 </r>
       <r>   -30.4548     0.0000     0.0000 </r>
       <r>   -30.3508     0.0000     0.0000 </r>
       <r>   -30.2469     0.0000     0.0000 </r>
       <r>   -30.1430     0.0000     0.0000 </r>
       <r>   -30.0391     0.0000     0.0000 </r>
       <r>   -29.9351     0.0000     0.0000 </r>
       <r>   -29.8312     0.0000     0.0000 </r>
       <r>   -29.7273     0.0005     0.0001 </r>
       <r>   -29.6234     0.0082     0.0009 </r>
       <r>   -29.5194     0.0736     0.0086 </r>
       <r>   -29.4155     0.3942     0.0495 </r>
       <r>   -29.3116     1.2572     0.1802 </r>
       <r>   -29.2077     2.3908     0.4286 </r>
       <r>   -29.1037     2.7127     0.7106 </r>
       <r>   -28.9998     1.8369     0.9015 </r>
       <r>   -28.8959     0.7419     0.9786 </r>
       <r>   -28.7920     0.1785     0.9971 </r>
       <r>   -28.6880     0.0256     0.9998 </r>
       <r>   -28.5841     0.0022     1.0000 </r>
       <r>   -28.4802     0.0001     1.0000 </r>
       <r>   -28.3763     0.0000     1.0000 </r>
       <r>   -28.2724     0.0000     1.0000 </r>
       <r>   -28.1684     0.0000     1.0000 </r>
       <r>   -28.0645     0.0000     1.0000 </r>
       <r>   -27.9606     0.0000     1.0000 </r>
       <r>   -27.8567     0.0000     1.0000 </r>
       <r>   -27.7527     0.0000     1.0000 </r>
       <r>   -27.6488     0.0000     1.0000 </r>
       <r>   -27.5449     0.0000     1.0000 </r>
       <r>   -27.4410     0.0000     1.0000 </r>
       <r>   -27.3370     0.0000     1.0000 </r>
       <r>   -27.2331     0.0000     1.0000 </r>
       <r>   -27.1292     0.0000     1.0000 </r>
       <r>   -27.0253     0.0000     1.0000 </r>
       <r>   -26.9213     0.0000     1.0000 </r>
       <r>   -26.8174     0.0000     1.0000 </r>
       <r>   -26.7135     0.0000     1.0000 </r>
       <r>   -26.6096     0.0000     1.0000 </r>
       <r>   -26.5056     0.0000     1.0000 </r>
       <r>   -26.4017     0.0000     1.0000 </r>
       <r>   -26.2978     0.0000     1.0000 </r>
       <r>   -26.1939     0.0000     1.0000 </r>
       <r>   -26.0899     0.0000     1.0000 </r>
       <r>   -25.9860     0.0000     1.0000 </r>
       <r>   -25.8821     0.0000     1.0000 </r>
       <r>   -25.7782     0.0000     1.0000 </r>
       <r>   -25.6742     0.0000     1.0000 </r>
       <r>   -25.5703     0.0000     1.0000 </r>
       <r>   -25.4664     0.0000     1.0000 </r>
       <r>   -25.3625     0.0000     1.0000 </r>
       <r>   -25.2585     0.0000     1.0000 </r>
       <r>   -25.1546     0.0000     1.0000 </r>
       <r>   -25.0507     0.0000     1.0000 </r>
       <r>   -24.9468     0.0000     1.0000 </r>
       <r>   -24.8428     0.0000     1.0000 </r>
       <r>   -24.7389     0.0000     1.0000 </r>
       <r>   -24.6350     0.0000     1.0000 </r>
       <r>   -24.5311     0.0000     1.0000 </r>
       <r>   -24.4271     0.0000     1.0000 </r>
       <r>   -24.3232     0.0000     1.0000 </r>
       <r>   -24.2193     0.0000     1.0000 </r>
       <r>   -24.1154     0.0000     1.0000 </r>
       <r>   -24.0114     0.0000     1.0000 </r>
       <r>   -23.9075     0.0000     1.0000 </r>
       <r>   -23.8036     0.0000     1.0000 </r>
       <r>   -23.6997     0.0000     1.0000 </r>
       <r>   -23.5957     0.0000     1.0000 </r>
       <r>   -23.4918     0.0000     1.0000 </r>
       <r>   -23.3879     0.0000     1.0000 </r>
       <r>   -23.2840     0.0000     1.0000 </r>
       <r>   -23.1800     0.0000     1.0000 </r>
       <r>   -23.0761     0.0000     1.0000 </r>
       <r>   -22.9722     0.0000     1.0000 </r>
       <r>   -22.8683     0.0000     1.0000 </r>
       <r>   -22.7644     0.0000     1.0000 </r>
       <r>   -22.6604     0.0000     1.0000 </r>
       <r>   -22.5565     0.0000     1.0000 </r>
       <r>   -22.4526     0.0000     1.0000 </r>
       <r>   -22.3487     0.0000     1.0000 </r>
       <r>   -22.2447     0.0000     1.0000 </r>
       <r>   -22.1408     0.0000     1.0000 </r>
       <r>   -22.0369     0.0000     1.0000 </r>
       <r>   -21.9330     0.0000     1.0000 </r>
       <r>   -21.8290     0.0000     1.0000 </r>
       <r>   -21.7251     0.0000     1.0000 </r>
       <r>   -21.6212     0.0000     1.0000 </r>
       <r>   -21.5173     0.0000     1.0000 </r>
       <r>   -21.4133     0.0000     1.0000 </r>
       <r>   -21.3094     0.0000     1.0000 </r>
       <r>   -21.2055     0.0000     1.0000 </r>
       <r>   -21.1016     0.0000     1.0000 </r>
       <r>   -20.9976     0.0000     1.0000 </r>
       <r>   -20.8937     0.0000     1.0000 </r>
       <r>   -20.7898     0.0000     1.0000 </r>
       <r>   -20.6859     0.0000     1.0000 </r>
       <r>   -20.5819     0.0000     1.0000 </r>
       <r>   -20.4780     0.0000     1.0000 </r>
       <r>   -20.3741     0.0000     1.0000 </r>
       <r>   -20.2702     0.0000     1.0000 </r>
       <r>   -20.1662     0.0000     1.0000 </r>
       <r>   -20.0623     0.0000     1.0000 </r>
       <r>   -19.9584     0.0000     1.0000 </r>
       <r>   -19.8545     0.0000     1.0000 </r>
       <r>   -19.7505     0.0000     1.0000 </r>
       <r>   -19.6466     0.0000     1.0000 </r>
       <r>   -19.5427     0.0000     1.0000 </r>
       <r>   -19.4388     0.0000     1.0000 </r>
       <r>   -19.3348     0.0000     1.0000 </r>
       <r>   -19.2309     0.0000     1.0000 </r>
       <r>   -19.1270     0.0000     1.0000 </r>
       <r>   -19.0231     0.0000     1.0000 </r>
       <r>   -18.9191     0.0000     1.0000 </r>
       <r>   -18.8152     0.0000     1.0000 </r>
       <r>   -18.7113     0.0000     1.0000 </r>
       <r>   -18.6074     0.0000     1.0000 </r>
       <r>   -18.5034     0.0000     1.0000 </r>
       <r>   -18.3995     0.0000     1.0000 </r>
       <r>   -18.2956     0.0000     1.0000 </r>
       <r>   -18.1917     0.0000     1.0000 </r>
       <r>   -18.0877     0.0000     1.0000 </r>
       <r>   -17.9838     0.0000     1.0000 </r>
       <r>   -17.8799     0.0000     1.0000 </r>
       <r>   -17.7760     0.0000     1.0000 </r>
       <r>   -17.6720     0.0000     1.0000 </r>
       <r>   -17.5681     0.0000     1.0000 </r>
       <r>   -17.4642     0.0000     1.0000 </r>
       <r>   -17.3603     0.0000     1.0000 </r>
       <r>   -17.2564     0.0000     1.0000 </r>
       <r>   -17.1524     0.0000     1.0000 </r>
       <r>   -17.0485     0.0000     1.0000 </r>
       <r>   -16.9446     0.0000     1.0000 </r>
       <r>   -16.8407     0.0000     1.0000 </r>
       <r>   -16.7367     0.0000     1.0000 </r>
       <r>   -16.6328     0.0000     1.0000 </r>
       <r>   -16.5289     0.0000     1.0000 </r>
       <r>   -16.4250     0.0000     1.0000 </r>
       <r>   -16.3210     0.0000     1.0000 </r>
       <r>   -16.2171     0.0000     1.0000 </r>
       <r>   -16.1132     0.0000     1.0000 </r>
       <r>   -16.0093     0.0000     1.0000 </r>
       <r>   -15.9053     0.0000     1.0000 </r>
       <r>   -15.8014     0.0000     1.0000 </r>
       <r>   -15.6975     0.0000     1.0000 </r>
       <r>   -15.5936     0.0000     1.0000 </r>
       <r>   -15.4896     0.0000     1.0000 </r>
       <r>   -15.3857     0.0000     1.0000 </r>
       <r>   -15.2818     0.0000     1.0000 </r>
       <r>   -15.1779     0.0000     1.0000 </r>
       <r>   -15.0739     0.0000     1.0000 </r>
       <r>   -14.9700     0.0000     1.0000 </r>
       <r>   -14.8661     0.0000     1.0000 </r>
       <r>   -14.7622     0.0000     1.0000 </r>
       <r>   -14.6582     0.0000     1.0000 </r>
       <r>   -14.5543     0.0001     1.0000 </r>
       <r>   -14.4504     0.0019     1.0002 </r>
       <r>   -14.3465     0.0231     1.0026 </r>
       <r>   -14.2425     0.1652     1.0198 </r>
       <r>   -14.1386     0.7031     1.0929 </r>
       <r>   -14.0347     1.7824     1.2781 </r>
       <r>   -13.9308     2.6950     1.5582 </r>
       <r>   -13.8268     2.4318     1.8109 </r>
       <r>   -13.7229     1.3093     1.9470 </r>
       <r>   -13.6190     0.4203     1.9906 </r>
       <r>   -13.5151     0.0803     1.9990 </r>
       <r>   -13.4111     0.0091     1.9999 </r>
       <r>   -13.3072     0.0006     2.0000 </r>
       <r>   -13.2033     0.0000     2.0000 </r>
       <r>   -13.0994     0.0000     2.0000 </r>
       <r>   -12.9954     0.0000     2.0000 </r>
       <r>   -12.8915     0.0000     2.0000 </r>
       <r>   -12.7876     0.0000     2.0000 </r>
       <r>   -12.6837     0.0000     2.0000 </r>
       <r>   -12.5797     0.0000     2.0000 </r>
       <r>   -12.4758     0.0000     2.0000 </r>
       <r>   -12.3719     0.0000     2.0000 </r>
       <r>   -12.2680     0.0001     2.0000 </r>
       <r>   -12.1640     0.0015     2.0002 </r>
       <r>   -12.0601     0.0217     2.0024 </r>
       <r>   -11.9562     0.1841     2.0215 </r>
       <r>   -11.8523     0.9278     2.1180 </r>
       <r>   -11.7484     2.7849     2.4074 </r>
       <r>   -11.6444     4.9844     2.9254 </r>
       <r>   -11.5405     5.3233     3.4786 </r>
       <r>   -11.4366     3.3927     3.8312 </r>
       <r>   -11.3327     1.2896     3.9652 </r>
       <r>   -11.2287     0.2920     3.9956 </r>
       <r>   -11.1248     0.0393     3.9997 </r>
       <r>   -11.0209     0.0031     4.0000 </r>
       <r>   -10.9170     0.0001     4.0000 </r>
       <r>   -10.8130     0.0000     4.0000 </r>
       <r>   -10.7091     0.0000     4.0000 </r>
       <r>   -10.6052     0.0000     4.0000 </r>
       <r>   -10.5013     0.0000     4.0000 </r>
       <r>   -10.3973     0.0000     4.0000 </r>
       <r>   -10.2934     0.0000     4.0000 </r>
       <r>   -10.1895     0.0000     4.0000 </r>
       <r>   -10.0856     0.0000     4.0000 </r>
       <r>    -9.9816     0.0000     4.0000 </r>
       <r>    -9.8777     0.0000     4.0000 </r>
       <r>    -9.7738     0.0000     4.0000 </r>
       <r>    -9.6699     0.0000     4.0000 </r>
       <r>    -9.5659     0.0000     4.0000 </r>
       <r>    -9.4620     0.0007     4.0001 </r>
       <r>    -9.3581     0.0100     4.0011 </r>
       <r>    -9.2542     0.0862     4.0101 </r>
       <r>    -9.1502     0.4422     4.0560 </r>
       <r>    -9.0463     1.3517     4.1965 </r>
       <r>    -8.9424     2.4634     4.4525 </r>
       <r>    -8.8385     2.6788     4.7309 </r>
       <r>    -8.7345     1.7384     4.9115 </r>
       <r>    -8.6306     0.6729     4.9815 </r>
       <r>    -8.5267     0.1552     4.9976 </r>
       <r>    -8.4228     0.0213     4.9998 </r>
       <r>    -8.3188     0.0017     5.0000 </r>
       <r>    -8.2149     0.0001     5.0000 </r>
       <r>    -8.1110     0.0000     5.0000 </r>
       <r>    -8.0071     0.0000     5.0000 </r>
       <r>    -7.9031     0.0000     5.0000 </r>
       <r>    -7.7992     0.0000     5.0000 </r>
       <r>    -7.6953     0.0000     5.0000 </r>
       <r>    -7.5914     0.0000     5.0000 </r>
       <r>    -7.4874     0.0000     5.0000 </r>
       <r>    -7.3835     0.0000     5.0000 </r>
       <r>    -7.2796     0.0000     5.0000 </r>
       <r>    -7.1757     0.0000     5.0000 </r>
       <r>    -7.0717     0.0000     5.0000 </r>
       <r>    -6.9678     0.0000     5.0000 </r>
       <r>    -6.8639     0.0000     5.0000 </r>
       <r>    -6.7600     0.0000     5.0000 </r>
       <r>    -6.6561     0.0000     5.0000 </r>
       <r>    -6.5521     0.0000     5.0000 </r>
       <r>    -6.4482     0.0000     5.0000 </r>
       <r>    -6.3443     0.0000     5.0000 </r>
       <r>    -6.2404     0.0000     5.0000 </r>
       <r>    -6.1364     0.0000     5.0000 </r>
       <r>    -6.0325     0.0000     5.0000 </r>
       <r>    -5.9286     0.0000     5.0000 </r>
       <r>    -5.8247     0.0000     5.0000 </r>
       <r>    -5.7207     0.0000     5.0000 </r>
       <r>    -5.6168     0.0000     5.0000 </r>
       <r>    -5.5129     0.0000     5.0000 </r>
       <r>    -5.4090     0.0000     5.0000 </r>
       <r>    -5.3050     0.0000     5.0000 </r>
       <r>    -5.2011     0.0000     5.0000 </r>
       <r>    -5.0972     0.0000     5.0000 </r>
       <r>    -4.9933     0.0000     5.0000 </r>
       <r>    -4.8893     0.0000     5.0000 </r>
       <r>    -4.7854     0.0000     5.0000 </r>
       <r>    -4.6815     0.0000     5.0000 </r>
       <r>    -4.5776     0.0000     5.0000 </r>
       <r>    -4.4736     0.0000     5.0000 </r>
       <r>    -4.3697     0.0000     5.0000 </r>
       <r>    -4.2658     0.0000     5.0000 </r>
       <r>    -4.1619     0.0000     5.0000 </r>
       <r>    -4.0579     0.0000     5.0000 </r>
       <r>    -3.9540     0.0000     5.0000 </r>
       <r>    -3.8501     0.0000     5.0000 </r>
       <r>    -3.7462     0.0000     5.0000 </r>
       <r>    -3.6422     0.0000     5.0000 </r>
       <r>    -3.5383     0.0000     5.0000 </r>
       <r>    -3.4344     0.0000     5.0000 </r>
       <r>    -3.3305     0.0000     5.0000 </r>
       <r>    -3.2265     0.0000     5.0000 </r>
       <r>    -3.1226     0.0000     5.0000 </r>
       <r>    -3.0187     0.0000     5.0000 </r>
       <r>    -2.9148     0.0000     5.0000 </r>
       <r>    -2.8108     0.0000     5.0000 </r>
       <r>    -2.7069     0.0000     5.0000 </r>
       <r>    -2.6030     0.0002     5.0000 </r>
       <r>    -2.4991     0.0043     5.0005 </r>
       <r>    -2.3951     0.0511     5.0058 </r>
       <r>    -2.2912     0.3571     5.0429 </r>
       <r>    -2.1873     1.4838     5.1971 </r>
       <r>    -2.0834     3.6737     5.5789 </r>
       <r>    -1.9794     5.4255     6.1427 </r>
       <r>    -1.8755     4.7816     6.6397 </r>
       <r>    -1.7716     2.5145     6.9010 </r>
       <r>    -1.6677     0.7883     6.9829 </r>
       <r>    -1.5637     0.1472     6.9982 </r>
       <r>    -1.4598     0.0163     6.9999 </r>
       <r>    -1.3559     0.0011     7.0000 </r>
       <r>    -1.2520     0.0000     7.0000 </r>
       <r>    -1.1481     0.0000     7.0000 </r>
       <r>    -1.0441     0.0000     7.0000 </r>
       <r>    -0.9402     0.0000     7.0000 </r>
       <r>    -0.8363     0.0000     7.0000 </r>
       <r>    -0.7324     0.0000     7.0000 </r>
       <r>    -0.6284     0.0000     7.0000 </r>
       <r>    -0.5245     0.0000     7.0000 </r>
       <r>    -0.4206     0.0000     7.0000 </r>
       <r>    -0.3167     0.0000     7.0000 </r>
       <r>    -0.2127     0.0000     7.0000 </r>
       <r>    -0.1088     0.0000     7.0000 </r>
       <r>    -0.0049     0.0000     7.0000 </r>
      </set>
     </set>
    </array>
   </total>
  </dos>
 </calculation>
 <structure name="finalpos" >
  <crystal>
   <varray name="basis" >
    <v>      10.00000000       0.00000000       0.00000000 </v>
    <v>       0.00000000      10.00000000       0.00000000 </v>
    <v>       0.00000000       0.00000000      10.00000000 </v>
   </varray>
   <i name="volume">   1000.00000000 </i>
   <varray name="rec_basis" >
    <v>       0.10000000       0.00000000       0.00000000 </v>
    <v>       0.00000000       0.10000000       0.00000000 </v>
    <v>       0.00000000       0.00000000       0.10000000 </v>
   </varray>
  </crystal>
  <varray name="positions" >
   <v>       0.50000000       0.50000000       0.44281870 </v>
   <v>       0.50000000       0.50000000       0.55718130 </v>
  </varray>
 </structure>
</modeling>
