   6   6   0   0
  0.1666667E+03  0.1000000E-08  0.1000000E-08  0.1000000E-08  0.5000000E-15
  1.000000000000000E-004
  CAR 
 unknown system                          
      2.72241865    -20.59624233  301     -5.59441862      1.00000000
    -20.596  0.0000E+00  0.0000E+00  0.0000E+00  0.0000E+00
    -20.519  0.0000E+00  0.0000E+00  0.0000E+00  0.0000E+00
    -20.441  0.0000E+00  0.0000E+00  0.0000E+00  0.0000E+00
    -20.363  0.0000E+00  0.0000E+00  0.0000E+00  0.0000E+00
    -20.285  0.0000E+00  0.0000E+00  0.0000E+00  0.0000E+00
    -20.208  0.0000E+00  0.0000E+00  0.0000E+00  0.0000E+00
    -20.130  0.0000E+00  0.0000E+00  0.0000E+00  0.0000E+00
    -20.052  0.0000E+00  0.0000E+00  0.0000E+00  0.0000E+00
    -19.974  0.0000E+00  0.0000E+00  0.0000E+00  0.0000E+00
    -19.897  0.0000E+00  0.0000E+00  0.0000E+00  0.0000E+00
    -19.819  0.0000E+00  0.0000E+00  0.0000E+00  0.0000E+00
    -19.741  0.3571E-15  0.3571E-15  0.2776E-16  0.2776E-16
    -19.663  0.2835E-13  0.2835E-13  0.2232E-14  0.2232E-14
    -19.586  0.1654E-11  0.1652E-11  0.1308E-12  0.1307E-12
    -19.508  0.7153E-10  0.7148E-10  0.5690E-11  0.5686E-11
    -19.430  0.2297E-08  0.2296E-08  0.1843E-09  0.1841E-09
    -19.353  0.5480E-07  0.5477E-07  0.4444E-08  0.4441E-08
    -19.275  0.9712E-06  0.9707E-06  0.7993E-07  0.7989E-07
    -19.197  0.1279E-04  0.1279E-04  0.1074E-05  0.1074E-05
    -19.119  0.1253E-03  0.1252E-03  0.1081E-04  0.1081E-04
    -19.042  0.9125E-03  0.9122E-03  0.8174E-04  0.8171E-04
    -18.964  0.4945E-02  0.4944E-02  0.4661E-03  0.4660E-03
    -18.886  0.1995E-01  0.1994E-01  0.2016E-02  0.2016E-02
    -18.808  0.5988E-01  0.5987E-01  0.6671E-02  0.6670E-02
    -18.731  0.1339E+00  0.1339E+00  0.1708E-01  0.1707E-01
    -18.653  0.2229E+00  0.2229E+00  0.3440E-01  0.3440E-01
    -18.575  0.2764E+00  0.2764E+00  0.5589E-01  0.5588E-01
    -18.498  0.2553E+00  0.2553E+00  0.7573E-01  0.7573E-01
    -18.420  0.1757E+00  0.1757E+00  0.8939E-01  0.8939E-01
    -18.342  0.9001E-01  0.9002E-01  0.9638E-01  0.9638E-01
    -18.264  0.3434E-01  0.3435E-01  0.9905E-01  0.9905E-01
    -18.187  0.9756E-02  0.9759E-02  0.9981E-01  0.9981E-01
    -18.109  0.2063E-02  0.2064E-02  0.9997E-01  0.9997E-01
    -18.031  0.3246E-03  0.3247E-03  0.1000E+00  0.1000E+00
    -17.953  0.3799E-04  0.3801E-04  0.1000E+00  0.1000E+00
    -17.876  0.3307E-05  0.3308E-05  0.1000E+00  0.1000E+00
    -17.798  0.2139E-06  0.2141E-06  0.1000E+00  0.1000E+00
    -17.720  0.1029E-07  0.1029E-07  0.1000E+00  0.1000E+00
    -17.643  0.3673E-09  0.3676E-09  0.1000E+00  0.1000E+00
    -17.565  0.9741E-11  0.9748E-11  0.1000E+00  0.1000E+00
    -17.487  0.1917E-12  0.1920E-12  0.1000E+00  0.1000E+00
    -17.409  0.2857E-14  0.2857E-14  0.1000E+00  0.1000E+00
    -17.332  0.0000E+00  0.0000E+00  0.1000E+00  0.1000E+00
    -17.254  0.0000E+00  0.0000E+00  0.1000E+00  0.1000E+00
    -17.176  0.0000E+00  0.0000E+00  0.1000E+00  0.1000E+00
    -17.098  0.0000E+00  0.0000E+00  0.1000E+00  0.1000E+00
    -17.021  0.0000E+00  0.0000E+00  0.1000E+00  0.1000E+00
    -16.943  0.0000E+00  0.0000E+00  0.1000E+00  0.1000E+00
    -16.865  0.0000E+00  0.0000E+00  0.1000E+00  0.1000E+00
    -16.788  0.0000E+00  0.0000E+00  0.1000E+00  0.1000E+00
    -16.710  0.0000E+00  0.0000E+00  0.1000E+00  0.1000E+00
    -16.632  0.0000E+00  0.0000E+00  0.1000E+00  0.1000E+00
    -16.554  0.0000E+00  0.0000E+00  0.1000E+00  0.1000E+00
    -16.477  0.0000E+00  0.0000E+00  0.1000E+00  0.1000E+00
    -16.399  0.0000E+00  0.0000E+00  0.1000E+00  0.1000E+00
    -16.321  0.0000E+00  0.0000E+00  0.1000E+00  0.1000E+00
    -16.243  0.0000E+00  0.0000E+00  0.1000E+00  0.1000E+00
    -16.166  0.0000E+00  0.0000E+00  0.1000E+00  0.1000E+00
    -16.088  0.0000E+00  0.0000E+00  0.1000E+00  0.1000E+00
    -16.010  0.0000E+00  0.0000E+00  0.1000E+00  0.1000E+00
    -15.933  0.0000E+00  0.0000E+00  0.1000E+00  0.1000E+00
    -15.855  0.0000E+00  0.0000E+00  0.1000E+00  0.1000E+00
    -15.777  0.0000E+00  0.0000E+00  0.1000E+00  0.1000E+00
    -15.699  0.0000E+00  0.0000E+00  0.1000E+00  0.1000E+00
    -15.622  0.0000E+00  0.0000E+00  0.1000E+00  0.1000E+00
    -15.544  0.0000E+00  0.0000E+00  0.1000E+00  0.1000E+00
    -15.466  0.0000E+00  0.0000E+00  0.1000E+00  0.1000E+00
    -15.388  0.0000E+00  0.0000E+00  0.1000E+00  0.1000E+00
    -15.311  0.0000E+00  0.0000E+00  0.1000E+00  0.1000E+00
    -15.233  0.0000E+00  0.0000E+00  0.1000E+00  0.1000E+00
    -15.155  0.2857E-15  0.2857E-15  0.1000E+00  0.1000E+00
    -15.077  0.2421E-13  0.2421E-13  0.1000E+00  0.1000E+00
    -15.000  0.1425E-11  0.1424E-11  0.1000E+00  0.1000E+00
    -14.922  0.6235E-10  0.6230E-10  0.1000E+00  0.1000E+00
    -14.844  0.2025E-08  0.2024E-08  0.1000E+00  0.1000E+00
    -14.767  0.4886E-07  0.4883E-07  0.1000E+00  0.1000E+00
    -14.689  0.8757E-06  0.8752E-06  0.1000E+00  0.1000E+00
    -14.611  0.1166E-04  0.1166E-04  0.1000E+00  0.1000E+00
    -14.533  0.1155E-03  0.1155E-03  0.1000E+00  0.1000E+00
    -14.456  0.8510E-03  0.8506E-03  0.1001E+00  0.1001E+00
    -14.378  0.4664E-02  0.4662E-02  0.1004E+00  0.1004E+00
    -14.300  0.1902E-01  0.1902E-01  0.1019E+00  0.1019E+00
    -14.222  0.5775E-01  0.5774E-01  0.1064E+00  0.1064E+00
    -14.145  0.1306E+00  0.1305E+00  0.1166E+00  0.1166E+00
    -14.067  0.2198E+00  0.2198E+00  0.1336E+00  0.1336E+00
    -13.989  0.2756E+00  0.2756E+00  0.1551E+00  0.1551E+00
    -13.912  0.2575E+00  0.2575E+00  0.1751E+00  0.1751E+00
    -13.834  0.1791E+00  0.1791E+00  0.1890E+00  0.1890E+00
    -13.756  0.9281E-01  0.9283E-01  0.1962E+00  0.1962E+00
    -13.678  0.3581E-01  0.3582E-01  0.1990E+00  0.1990E+00
    -13.601  0.1029E-01  0.1029E-01  0.1998E+00  0.1998E+00
    -13.523  0.2200E-02  0.2201E-02  0.2000E+00  0.2000E+00
    -13.445  0.3500E-03  0.3502E-03  0.2000E+00  0.2000E+00
    -13.367  0.4143E-04  0.4145E-04  0.2000E+00  0.2000E+00
    -13.290  0.3647E-05  0.3649E-05  0.2000E+00  0.2000E+00
    -13.212  0.2386E-06  0.2388E-06  0.2000E+00  0.2000E+00
    -13.134  0.1160E-07  0.1161E-07  0.2000E+00  0.2000E+00
    -13.057  0.4190E-09  0.4193E-09  0.2000E+00  0.2000E+00
    -12.979  0.1124E-10  0.1125E-10  0.2000E+00  0.2000E+00
    -12.901  0.2237E-12  0.2238E-12  0.2000E+00  0.2000E+00
    -12.823  0.3428E-14  0.3428E-14  0.2000E+00  0.2000E+00
    -12.746  0.0000E+00  0.0000E+00  0.2000E+00  0.2000E+00
    -12.668  0.0000E+00  0.0000E+00  0.2000E+00  0.2000E+00
    -12.590  0.0000E+00  0.0000E+00  0.2000E+00  0.2000E+00
    -12.512  0.0000E+00  0.0000E+00  0.2000E+00  0.2000E+00
    -12.435  0.0000E+00  0.0000E+00  0.2000E+00  0.2000E+00
    -12.357  0.6427E-15  0.6427E-15  0.2000E+00  0.2000E+00
    -12.279  0.4671E-13  0.4663E-13  0.2000E+00  0.2000E+00
    -12.202  0.2630E-11  0.2625E-11  0.2000E+00  0.2000E+00
    -12.124  0.1098E-09  0.1096E-09  0.2000E+00  0.2000E+00
    -12.046  0.3404E-08  0.3398E-08  0.2000E+00  0.2000E+00
    -11.968  0.7837E-07  0.7826E-07  0.2000E+00  0.2000E+00
    -11.891  0.1341E-05  0.1339E-05  0.2000E+00  0.2000E+00
    -11.813  0.1705E-04  0.1703E-04  0.2000E+00  0.2000E+00
    -11.735  0.1612E-03  0.1610E-03  0.2000E+00  0.2000E+00
    -11.657  0.1133E-02  0.1132E-02  0.2001E+00  0.2001E+00
    -11.580  0.5929E-02  0.5925E-02  0.2006E+00  0.2006E+00
    -11.502  0.2309E-01  0.2308E-01  0.2024E+00  0.2024E+00
    -11.424  0.6693E-01  0.6690E-01  0.2076E+00  0.2076E+00
    -11.347  0.1445E+00  0.1444E+00  0.2188E+00  0.2188E+00
    -11.269  0.2322E+00  0.2322E+00  0.2368E+00  0.2368E+00
    -11.191  0.2781E+00  0.2781E+00  0.2585E+00  0.2584E+00
    -11.113  0.2480E+00  0.2480E+00  0.2777E+00  0.2777E+00
    -11.036  0.1647E+00  0.1648E+00  0.2905E+00  0.2905E+00
    -10.958  0.8150E-01  0.8154E-01  0.2969E+00  0.2969E+00
    -10.880  0.3003E-01  0.3004E-01  0.2992E+00  0.2992E+00
    -10.802  0.8236E-02  0.8241E-02  0.2998E+00  0.2998E+00
    -10.725  0.1681E-02  0.1683E-02  0.3000E+00  0.3000E+00
    -10.647  0.2563E-03  0.2565E-03  0.3000E+00  0.3000E+00
    -10.569  0.4050E-04  0.4051E-04  0.3000E+00  0.3000E+00
    -10.491  0.1178E-03  0.1176E-03  0.3000E+00  0.3000E+00
    -10.414  0.8501E-03  0.8490E-03  0.3001E+00  0.3001E+00
    -10.336  0.4659E-02  0.4654E-02  0.3004E+00  0.3004E+00
    -10.258  0.1901E-01  0.1899E-01  0.3019E+00  0.3019E+00
    -10.181  0.5771E-01  0.5768E-01  0.3064E+00  0.3064E+00
    -10.103  0.1305E+00  0.1304E+00  0.3165E+00  0.3165E+00
    -10.025  0.2198E+00  0.2197E+00  0.3336E+00  0.3336E+00
     -9.947  0.2756E+00  0.2756E+00  0.3551E+00  0.3550E+00
     -9.870  0.2575E+00  0.2575E+00  0.3751E+00  0.3751E+00
     -9.792  0.1792E+00  0.1792E+00  0.3890E+00  0.3890E+00
     -9.714  0.9286E-01  0.9291E-01  0.3962E+00  0.3962E+00
     -9.636  0.3584E-01  0.3586E-01  0.3990E+00  0.3990E+00
     -9.559  0.1030E-01  0.1031E-01  0.3998E+00  0.3998E+00
     -9.481  0.2202E-02  0.2205E-02  0.4000E+00  0.4000E+00
     -9.403  0.3505E-03  0.3510E-03  0.4000E+00  0.4000E+00
     -9.326  0.4149E-04  0.4156E-04  0.4000E+00  0.4000E+00
     -9.248  0.3653E-05  0.3659E-05  0.4000E+00  0.4000E+00
     -9.170  0.2392E-06  0.2397E-06  0.4000E+00  0.4000E+00
     -9.092  0.1715E-07  0.1717E-07  0.4000E+00  0.4000E+00
     -9.015  0.1222E-06  0.1220E-06  0.4000E+00  0.4000E+00
     -8.937  0.1994E-05  0.1991E-05  0.4000E+00  0.4000E+00
     -8.859  0.2426E-04  0.2423E-04  0.4000E+00  0.4000E+00
     -8.781  0.2194E-03  0.2192E-03  0.4000E+00  0.4000E+00
     -8.704  0.1477E-02  0.1475E-02  0.4001E+00  0.4001E+00
     -8.626  0.7394E-02  0.7388E-02  0.4007E+00  0.4007E+00
     -8.548  0.2756E-01  0.2754E-01  0.4029E+00  0.4028E+00
     -8.471  0.7645E-01  0.7642E-01  0.4088E+00  0.4088E+00
     -8.393  0.1579E+00  0.1579E+00  0.4211E+00  0.4211E+00
     -8.315  0.2430E+00  0.2430E+00  0.4400E+00  0.4399E+00
     -8.237  0.2785E+00  0.2785E+00  0.4616E+00  0.4616E+00
     -8.160  0.2378E+00  0.2378E+00  0.4801E+00  0.4801E+00
     -8.082  0.1512E+00  0.1512E+00  0.4918E+00  0.4918E+00
     -8.004  0.7158E-01  0.7162E-01  0.4974E+00  0.4974E+00
     -7.926  0.2524E-01  0.2526E-01  0.4994E+00  0.4994E+00
     -7.849  0.6626E-02  0.6631E-02  0.4999E+00  0.4999E+00
     -7.771  0.1295E-02  0.1296E-02  0.5000E+00  0.5000E+00
     -7.693  0.1882E-03  0.1884E-03  0.5000E+00  0.5000E+00
     -7.616  0.2035E-04  0.2037E-04  0.5000E+00  0.5000E+00
     -7.538  0.1636E-05  0.1638E-05  0.5000E+00  0.5000E+00
     -7.460  0.9789E-07  0.9805E-07  0.5000E+00  0.5000E+00
     -7.382  0.8667E-08  0.8659E-08  0.5000E+00  0.5000E+00
     -7.305  0.9762E-07  0.9731E-07  0.5000E+00  0.5000E+00
     -7.227  0.1632E-05  0.1627E-05  0.5000E+00  0.5000E+00
     -7.149  0.2030E-04  0.2025E-04  0.5000E+00  0.5000E+00
     -7.071  0.1878E-03  0.1874E-03  0.5000E+00  0.5000E+00
     -6.994  0.1292E-02  0.1290E-02  0.5001E+00  0.5001E+00
     -6.916  0.6617E-02  0.6606E-02  0.5006E+00  0.5006E+00
     -6.838  0.2521E-01  0.2518E-01  0.5026E+00  0.5026E+00
     -6.761  0.7153E-01  0.7146E-01  0.5082E+00  0.5081E+00
     -6.683  0.1511E+00  0.1510E+00  0.5199E+00  0.5199E+00
     -6.605  0.2377E+00  0.2376E+00  0.5384E+00  0.5383E+00
     -6.527  0.2785E+00  0.2785E+00  0.5600E+00  0.5600E+00
     -6.450  0.2431E+00  0.2432E+00  0.5789E+00  0.5789E+00
     -6.372  0.1580E+00  0.1581E+00  0.5912E+00  0.5912E+00
     -6.294  0.7651E-01  0.7659E-01  0.5971E+00  0.5971E+00
     -6.216  0.2759E-01  0.2762E-01  0.5993E+00  0.5993E+00
     -6.139  0.7404E-02  0.7416E-02  0.5999E+00  0.5999E+00
     -6.061  0.1479E-02  0.1482E-02  0.6000E+00  0.6000E+00
     -5.983  0.2199E-03  0.2203E-03  0.6000E+00  0.6000E+00
     -5.905  0.2431E-04  0.2437E-04  0.6000E+00  0.6000E+00
     -5.828  0.1998E-05  0.2004E-05  0.6000E+00  0.6000E+00
     -5.750  0.1221E-06  0.1225E-06  0.6000E+00  0.6000E+00
     -5.672  0.5545E-08  0.5565E-08  0.6000E+00  0.6000E+00
     -5.595  0.1870E-09  0.1877E-09  0.6000E+00  0.6000E+00
     -5.517  0.4683E-11  0.4703E-11  0.6000E+00  0.6000E+00
     -5.439  0.8713E-13  0.8756E-13  0.6000E+00  0.6000E+00
     -5.361  0.1143E-14  0.1143E-14  0.6000E+00  0.6000E+00
     -5.284  0.0000E+00  0.0000E+00  0.6000E+00  0.6000E+00
     -5.206  0.0000E+00  0.0000E+00  0.6000E+00  0.6000E+00
     -5.128  0.0000E+00  0.0000E+00  0.6000E+00  0.6000E+00
     -5.050  0.0000E+00  0.0000E+00  0.6000E+00  0.6000E+00
     -4.973  0.0000E+00  0.0000E+00  0.6000E+00  0.6000E+00
     -4.895  0.0000E+00  0.0000E+00  0.6000E+00  0.6000E+00
     -4.817  0.0000E+00  0.0000E+00  0.6000E+00  0.6000E+00
     -4.740  0.0000E+00  0.0000E+00  0.6000E+00  0.6000E+00
     -4.662  0.0000E+00  0.0000E+00  0.6000E+00  0.6000E+00
     -4.584  0.0000E+00  0.0000E+00  0.6000E+00  0.6000E+00
     -4.506  0.0000E+00  0.0000E+00  0.6000E+00  0.6000E+00
     -4.429  0.0000E+00  0.0000E+00  0.6000E+00  0.6000E+00
     -4.351  0.0000E+00  0.0000E+00  0.6000E+00  0.6000E+00
     -4.273  0.0000E+00  0.0000E+00  0.6000E+00  0.6000E+00
     -4.195  0.0000E+00  0.0000E+00  0.6000E+00  0.6000E+00
     -4.118  0.0000E+00  0.0000E+00  0.6000E+00  0.6000E+00
     -4.040  0.0000E+00  0.0000E+00  0.6000E+00  0.6000E+00
     -3.962  0.0000E+00  0.0000E+00  0.6000E+00  0.6000E+00
     -3.885  0.0000E+00  0.0000E+00  0.6000E+00  0.6000E+00
     -3.807  0.0000E+00  0.0000E+00  0.6000E+00  0.6000E+00
     -3.729  0.0000E+00  0.0000E+00  0.6000E+00  0.6000E+00
     -3.651  0.0000E+00  0.0000E+00  0.6000E+00  0.6000E+00
     -3.574  0.0000E+00  0.0000E+00  0.6000E+00  0.6000E+00
     -3.496  0.0000E+00  0.0000E+00  0.6000E+00  0.6000E+00
     -3.418  0.0000E+00  0.0000E+00  0.6000E+00  0.6000E+00
     -3.340  0.0000E+00  0.0000E+00  0.6000E+00  0.6000E+00
     -3.263  0.0000E+00  0.0000E+00  0.6000E+00  0.6000E+00
     -3.185  0.0000E+00  0.0000E+00  0.6000E+00  0.6000E+00
     -3.107  0.0000E+00  0.0000E+00  0.6000E+00  0.6000E+00
     -3.030  0.0000E+00  0.0000E+00  0.6000E+00  0.6000E+00
     -2.952  0.0000E+00  0.0000E+00  0.6000E+00  0.6000E+00
     -2.874  0.0000E+00  0.0000E+00  0.6000E+00  0.6000E+00
     -2.796  0.0000E+00  0.0000E+00  0.6000E+00  0.6000E+00
     -2.719  0.0000E+00  0.0000E+00  0.6000E+00  0.6000E+00
     -2.641  0.0000E+00  0.0000E+00  0.6000E+00  0.6000E+00
     -2.563  0.0000E+00  0.0000E+00  0.6000E+00  0.6000E+00
     -2.485  0.0000E+00  0.0000E+00  0.6000E+00  0.6000E+00
     -2.408  0.0000E+00  0.0000E+00  0.6000E+00  0.6000E+00
     -2.330  0.0000E+00  0.0000E+00  0.6000E+00  0.6000E+00
     -2.252  0.0000E+00  0.0000E+00  0.6000E+00  0.6000E+00
     -2.175  0.0000E+00  0.0000E+00  0.6000E+00  0.6000E+00
     -2.097  0.0000E+00  0.0000E+00  0.6000E+00  0.6000E+00
     -2.019  0.7142E-15  0.7142E-15  0.6000E+00  0.6000E+00
     -1.941  0.5185E-13  0.5163E-13  0.6000E+00  0.6000E+00
     -1.864  0.2896E-11  0.2886E-11  0.6000E+00  0.6000E+00
     -1.786  0.1200E-09  0.1196E-09  0.6000E+00  0.6000E+00
     -1.708  0.3693E-08  0.3683E-08  0.6000E+00  0.6000E+00
     -1.630  0.8441E-07  0.8419E-07  0.6000E+00  0.6000E+00
     -1.553  0.1433E-05  0.1430E-05  0.6000E+00  0.6000E+00
     -1.475  0.1809E-04  0.1805E-04  0.6000E+00  0.6000E+00
     -1.397  0.1698E-03  0.1695E-03  0.6000E+00  0.6000E+00
     -1.319  0.1185E-02  0.1183E-02  0.6001E+00  0.6001E+00
     -1.242  0.6155E-02  0.6147E-02  0.6006E+00  0.6006E+00
     -1.164  0.2379E-01  0.2377E-01  0.6024E+00  0.6024E+00
     -1.086  0.6847E-01  0.6842E-01  0.6078E+00  0.6077E+00
     -1.009  0.1467E+00  0.1467E+00  0.6192E+00  0.6191E+00
     -0.931  0.2344E+00  0.2343E+00  0.6374E+00  0.6374E+00
     -0.853  0.2800E+00  0.2800E+00  0.6591E+00  0.6591E+00
     -0.775  0.2547E+00  0.2547E+00  0.6789E+00  0.6789E+00
     -0.698  0.1928E+00  0.1927E+00  0.6939E+00  0.6939E+00
     -0.620  0.1619E+00  0.1616E+00  0.7065E+00  0.7065E+00
     -0.542  0.1947E+00  0.1943E+00  0.7216E+00  0.7216E+00
     -0.464  0.2565E+00  0.2562E+00  0.7416E+00  0.7415E+00
     -0.387  0.2796E+00  0.2797E+00  0.7633E+00  0.7632E+00
     -0.309  0.2318E+00  0.2322E+00  0.7813E+00  0.7813E+00
     -0.231  0.1437E+00  0.1442E+00  0.7925E+00  0.7925E+00
     -0.154  0.6641E-01  0.6670E-01  0.7977E+00  0.7977E+00
     -0.076  0.2285E-01  0.2298E-01  0.7994E+00  0.7994E+00
      0.002  0.5854E-02  0.5896E-02  0.7999E+00  0.7999E+00
      0.080  0.1124E-02  0.1134E-02  0.8000E+00  0.8000E+00
      0.157  0.2506E-03  0.2517E-03  0.8000E+00  0.8000E+00
      0.235  0.7842E-03  0.7808E-03  0.8001E+00  0.8001E+00
      0.313  0.4752E-02  0.4733E-02  0.8004E+00  0.8004E+00
      0.391  0.2189E-01  0.2182E-01  0.8021E+00  0.8021E+00
      0.468  0.7512E-01  0.7492E-01  0.8080E+00  0.8080E+00
      0.546  0.1920E+00  0.1916E+00  0.8229E+00  0.8229E+00
      0.624  0.3657E+00  0.3653E+00  0.8513E+00  0.8512E+00
      0.701  0.5190E+00  0.5187E+00  0.8917E+00  0.8916E+00
      0.779  0.5489E+00  0.5490E+00  0.9343E+00  0.9342E+00
      0.857  0.4326E+00  0.4330E+00  0.9680E+00  0.9679E+00
      0.935  0.2541E+00  0.2545E+00  0.9877E+00  0.9877E+00
      1.012  0.1112E+00  0.1115E+00  0.9964E+00  0.9963E+00
      1.090  0.3625E-01  0.3636E-01  0.9992E+00  0.9992E+00
      1.168  0.8801E-02  0.8836E-02  0.9999E+00  0.9999E+00
      1.246  0.1591E-02  0.1599E-02  0.1000E+01  0.1000E+01
      1.323  0.2141E-03  0.2153E-03  0.1000E+01  0.1000E+01
      1.401  0.2144E-04  0.2158E-04  0.1000E+01  0.1000E+01
      1.479  0.1597E-05  0.1608E-05  0.1000E+01  0.1000E+01
      1.556  0.8845E-07  0.8915E-07  0.1000E+01  0.1000E+01
      1.634  0.3641E-08  0.3673E-08  0.1000E+01  0.1000E+01
      1.712  0.1114E-09  0.1125E-09  0.1000E+01  0.1000E+01
      1.790  0.2531E-11  0.2558E-11  0.1000E+01  0.1000E+01
      1.867  0.4256E-13  0.4314E-13  0.1000E+01  0.1000E+01
      1.945  0.5713E-15  0.5713E-15  0.1000E+01  0.1000E+01
      2.023  0.0000E+00  0.0000E+00  0.1000E+01  0.1000E+01
      2.101  0.0000E+00  0.0000E+00  0.1000E+01  0.1000E+01
      2.178  0.0000E+00  0.0000E+00  0.1000E+01  0.1000E+01
      2.256  0.0000E+00  0.0000E+00  0.1000E+01  0.1000E+01
      2.334  0.0000E+00  0.0000E+00  0.1000E+01  0.1000E+01
      2.412  0.0000E+00  0.0000E+00  0.1000E+01  0.1000E+01
      2.489  0.0000E+00  0.0000E+00  0.1000E+01  0.1000E+01
      2.567  0.0000E+00  0.0000E+00  0.1000E+01  0.1000E+01
      2.645  0.0000E+00  0.0000E+00  0.1000E+01  0.1000E+01
      2.722  0.0000E+00  0.0000E+00  0.1000E+01  0.1000E+01
