    6    6   10    2
  0.1666667E+03  0.1000000E-08  0.1000000E-08  0.1000000E-08  0.5000000E-15
  1.000000000000000E-004
  CAR 
 unknown system                          
   12    1   10
 
  0.0000000E+00  0.0000000E+00  0.0000000E+00  0.1000000E+01
   1      -18.596242    -18.596227
   2      -14.007294    -14.007277
   3      -11.221252    -11.221215
   4       -9.965343     -9.965289
   5       -8.279108     -8.279067
   6       -6.563217     -6.563133
   7       -0.885246     -0.885178
   8       -0.434929     -0.434557
   9        0.710365      0.710505
  10        0.722174      0.722419
