       N       E                     dE             d eps       ncg     rms          rms(c)
DAV:   1     0.593793027087E+02    0.59379E+02   -0.28821E+03    56   0.477E+02
DAV:   2    -0.138668347491E+02   -0.73246E+02   -0.64842E+02    58   0.123E+02
DAV:   3    -0.277011949525E+02   -0.13834E+02   -0.13826E+02    62   0.689E+01
DAV:   4    -0.280066055090E+02   -0.30541E+00   -0.30529E+00    46   0.913E+00
DAV:   5    -0.280112586189E+02   -0.46531E-02   -0.46531E-02    60   0.119E+00    0.158E+01
DAV:   6    -0.133669209643E+02    0.14644E+02   -0.40293E+01    42   0.429E+01    0.647E+00
DAV:   7    -0.271971159341E+02   -0.13830E+02   -0.15724E+01    42   0.217E+01    0.318E+00
DAV:   8    -0.295906128813E+02   -0.23935E+01   -0.55729E-01    42   0.616E+00    0.180E+00
DAV:   9    -0.317193133963E+02   -0.21287E+01   -0.12225E+00    40   0.576E+00    0.461E-01
DAV:  10    -0.319091405232E+02   -0.18983E+00   -0.14037E-01    42   0.190E+00    0.224E-01
DAV:  11    -0.319129580525E+02   -0.38175E-02   -0.53092E-03    50   0.698E-01    0.134E-01
DAV:  12    -0.319095245444E+02    0.34335E-02   -0.48292E-03    40   0.488E-01    0.109E-01
DAV:  13    -0.319121358492E+02   -0.26113E-02   -0.83415E-04    40   0.193E-01    0.619E-02
DAV:  14    -0.319210220078E+02   -0.88862E-02   -0.26757E-03    40   0.258E-01    0.438E-02
DAV:  15    -0.319235789522E+02   -0.25569E-02   -0.44793E-04    44   0.161E-01    0.226E-02
DAV:  16    -0.319262249416E+02   -0.26460E-02   -0.32991E-04    42   0.119E-01    0.161E-02
DAV:  17    -0.319282297097E+02   -0.20048E-02   -0.35323E-04    42   0.101E-01    0.110E-02
DAV:  18    -0.319288950738E+02   -0.66536E-03   -0.71718E-05    42   0.576E-02    0.511E-03
DAV:  19    -0.319290606931E+02   -0.16562E-03   -0.12683E-05    40   0.297E-02    0.313E-03
DAV:  20    -0.319291922657E+02   -0.13157E-03   -0.10626E-05    40   0.262E-02    0.240E-03
DAV:  21    -0.319292287223E+02   -0.36457E-04   -0.30449E-06    44   0.147E-02
   1 F= -.31929229E+02 E0= -.31929229E+02  d E =-.319292E+02  mag=     0.0001
       N       E                     dE             d eps       ncg     rms          rms(c)
DAV:   1    -0.318904866151E+02    0.38706E-01   -0.25198E+00    44   0.145E+01    0.478E-01
DAV:   2    -0.318903865779E+02    0.10004E-03   -0.43296E-02    40   0.160E+00    0.324E-01
DAV:   3    -0.318884898392E+02    0.18967E-02   -0.10704E-02    40   0.900E-01    0.714E-02
DAV:   4    -0.318883970276E+02    0.92812E-04   -0.17463E-03    40   0.316E-01    0.223E-02
DAV:   5    -0.318883976804E+02   -0.65287E-06   -0.95825E-05    42   0.782E-02
   2 F= -.31888398E+02 E0= -.31888398E+02  d E =0.408310E-01  mag=     0.0000
       N       E                     dE             d eps       ncg     rms          rms(c)
DAV:   1    -0.319341824082E+02   -0.45785E-01   -0.15296E+00    40   0.113E+01    0.369E-01
DAV:   2    -0.319340524451E+02    0.12996E-03   -0.25591E-02    42   0.124E+00    0.253E-01
DAV:   3    -0.319329683409E+02    0.10841E-02   -0.66118E-03    40   0.706E-01    0.591E-02
DAV:   4    -0.319328923291E+02    0.76012E-04   -0.11677E-03    44   0.264E-01    0.161E-02
DAV:   5    -0.319329005603E+02   -0.82312E-05   -0.43620E-05    40   0.573E-02
   3 F= -.31932901E+02 E0= -.31932901E+02  d E =-.367184E-02  mag=     0.0000
       N       E                     dE             d eps       ncg     rms          rms(c)
DAV:   1    -0.319359334061E+02   -0.30411E-02   -0.35162E-01    42   0.545E+00    0.237E-01
DAV:   2    -0.319342986577E+02    0.16347E-02   -0.48766E-03    44   0.656E-01    0.119E-01
DAV:   3    -0.319340449733E+02    0.25368E-03   -0.48354E-03    60   0.427E-01    0.496E-02
DAV:   4    -0.319339720009E+02    0.72972E-04   -0.21198E-04    40   0.972E-02
   4 F= -.31933972E+02 E0= -.31933972E+02  d E =-.107144E-02  mag=     0.0000
       N       E                     dE             d eps       ncg     rms          rms(c)
DAV:   1    -0.319358992862E+02   -0.18543E-02   -0.65230E-02    40   0.238E+00    0.104E-01
DAV:   2    -0.319355884228E+02    0.31086E-03   -0.88925E-04    60   0.279E-01    0.521E-02
DAV:   3    -0.319355568622E+02    0.31561E-04   -0.87932E-04    44   0.185E-01
   5 F= -.31935557E+02 E0= -.31935557E+02  d E =-.265630E-02  mag=     0.0000
