 vasp.5.2.12 11Nov11 complex                                                    
  
 executed on             LinuxIFC date 2012.11.01  16:39:45
 running on    1 nodes
 distr:  one band on    1 nodes,    1 groups


--------------------------------------------------------------------------------------------------------


 INCAR:
 POTCAR:   PAW_PBE H 15Jun2001                    
 POTCAR:   PAW_PBE C 08Apr2002                    
 POTCAR:   PAW_PBE H 15Jun2001                    
   VRHFIN =H: ultrasoft test                                                    
   LEXCH  = PE                                                                  
   EATOM  =    12.4884 eV,     .9179 Ry                                         
                                                                                
   TITEL  = PAW_PBE H 15Jun2001                                                 
   LULTRA =        F    use ultrasoft PP ?                                      
   IUNSCR =        0    unscreen: 0-lin 1-nonlin 2-no                           
   RPACOR =     .000    partial core radius                                     
   POMASS =    1.000; ZVAL   =    1.000    mass and valenz                      
   RCORE  =    1.100    outmost cutoff radius                                   
   RWIGS  =     .700; RWIGS  =     .370    wigner-seitz radius (au A)           
   ENMAX  =  250.000; ENMIN  =  200.000 eV                                      
   RCLOC  =     .701    cutoff for local pot                                    
   LCOR   =        T    correct aug charges                                     
   LPAW   =        T    paw PP                                                  
   EAUG   =  400.000                                                            
   RMAX   =    2.174    core radius for proj-oper                               
   RAUG   =    1.200    factor for augmentation sphere                          
   RDEP   =    1.112    radius for radial grids                                 
   QCUT   =   -5.749; QGAM   =   11.498    optimization parameters              
                                                                                
   Description                                                                  
     l     E      TYP  RCUT    TYP  RCUT                                        
     0   .000     23  1.100                                                     
     0   .500     23  1.100                                                     
     1  -.300     23  1.100                                                     
  local pseudopotential read in
  atomic valenz-charges read in
  non local Contribution for L=           0  read in
    real space projection operators read in
  non local Contribution for L=           0  read in
    real space projection operators read in
  non local Contribution for L=           1  read in
    real space projection operators read in
    PAW grid and wavefunctions read in
 
   number of l-projection  operators is LMAX  =           3
   number of lm-projection operators is LMMAX =           5
 
 POTCAR:   PAW_PBE C 08Apr2002                    
   VRHFIN =C: s2p2                                                              
   LEXCH  = PE                                                                  
   EATOM  =   147.1560 eV,   10.8157 Ry                                         
                                                                                
   TITEL  = PAW_PBE C 08Apr2002                                                 
   LULTRA =        F    use ultrasoft PP ?                                      
   IUNSCR =        0    unscreen: 0-lin 1-nonlin 2-no                           
   RPACOR =     .000    partial core radius                                     
   POMASS =   12.011; ZVAL   =    4.000    mass and valenz                      
   RCORE  =    1.500    outmost cutoff radius                                   
   RWIGS  =    1.630; RWIGS  =     .863    wigner-seitz radius (au A)           
   ENMAX  =  400.000; ENMIN  =  300.000 eV                                      
   ICORE  =        2    local potential                                         
   LCOR   =        T    correct aug charges                                     
   LPAW   =        T    paw PP                                                  
   EAUG   =  644.873                                                            
   DEXC   =     .000                                                            
   RMAX   =    2.266    core radius for proj-oper                               
   RAUG   =    1.300    factor for augmentation sphere                          
   RDEP   =    1.501    radius for radial grids                                 
   RDEPT  =    1.300    core radius for aug-charge                              
   QCUT   =   -5.516; QGAM   =   11.032    optimization parameters              
                                                                                
   Description                                                                  
     l     E      TYP  RCUT    TYP  RCUT                                        
     0   .000     23  1.200                                                     
     0   .000     23  1.200                                                     
     1   .000     23  1.500                                                     
     1  2.500     23  1.500                                                     
     2   .000      7  1.500                                                     
  local pseudopotential read in
  atomic valenz-charges read in
  non local Contribution for L=           0  read in
    real space projection operators read in
  non local Contribution for L=           0  read in
    real space projection operators read in
  non local Contribution for L=           1  read in
    real space projection operators read in
  non local Contribution for L=           1  read in
    real space projection operators read in
    PAW grid and wavefunctions read in
 
   number of l-projection  operators is LMAX  =           4
   number of lm-projection operators is LMMAX =           8
 
 PAW_PBE H 15Jun2001                    :
 energy of atom  1       EATOM=  -12.4884
 kinetic energy error for atom=    0.0203 (will be added to EATOM!!)
 PAW_PBE C 08Apr2002                    :
 energy of atom  2       EATOM= -147.1560
 kinetic energy error for atom=    0.0854 (will be added to EATOM!!)
 
 
 POSCAR:  H  C                                   
  positions in cartesian coordinates
  No initial velocities read in
 exchange correlation table for  LEXCH =        8
   RHO(1)=    0.500       N(1)  =     2000
   RHO(2)=  100.500       N(2)  =     4000
 


--------------------------------------------------------------------------------------------------------


 ion  position               nearest neighbor table
   1  0.500  0.592  0.624-   5 1.08
   2  0.500  0.408  0.624-   5 1.08
   3  0.500  0.592  0.376-   6 1.08
   4  0.500  0.408  0.376-   6 1.08
   5  0.500  0.500  0.567-   1 1.08   2 1.08   6 1.33
   6  0.500  0.500  0.433-   3 1.08   4 1.08   5 1.33
 
  LATTYP: Found a simple cubic cell.
 ALAT       =    10.0000000000
  
  Lattice vectors:
  
 A1 = (  10.0000000000,   0.0000000000,   0.0000000000)
 A2 = (   0.0000000000,  10.0000000000,   0.0000000000)
 A3 = (   0.0000000000,   0.0000000000,  10.0000000000)
 Subroutine PRICEL returns:
 Original cell was already a primitive cell.
 

Analysis of symmetry for initial positions (statically):

 Routine SETGRP: Setting up the symmetry group for a 
 simple cubic supercell.


 Subroutine GETGRP returns: Found  8 space group operations
 (whereof  8 operations were pure point group operations)
 out of a pool of 48 trial point group operations.


The static configuration has the point symmetry D_2h.

Analysis of symmetry for dynamics (positions and initial velocities):

 Subroutine DYNSYM returns: Found  8 space group operations
 (whereof  8 operations were pure point group operations)
 out of a pool of  8 trial space group operations
 (whereof  8 operations were pure point group operations)
 and found also     1 'primitive' translations


The dynamic configuration has the point symmetry D_2h.

Analysis of magnetic symmetry:

 Subroutine MAGSYM returns: Found  8 space group operations
 (whereof  8 operations were pure point group operations)
 out of a pool of  8 trial space group operations
 (whereof  8 operations were pure point group operations)
 and found also     1 'primitive' translations


The magnetic configuration has the point symmetry D_2h.
 
 
 KPOINTS: KPOINTS created by Atomic Simulation Env

Automatic generation of k-mesh.
 
 Subroutine IBZKPT returns following result:
 ===========================================
 
 Found      1 irreducible k-points:
 
 Following reciprocal coordinates:
            Coordinates               Weight
  0.000000  0.000000  0.000000      1.000000
 
 Following cartesian coordinates:
            Coordinates               Weight
  0.000000  0.000000  0.000000      1.000000
 


--------------------------------------------------------------------------------------------------------




 Dimension of arrays:
   k-points           NKPTS =      1   k-points in BZ     NKDIM =      1   number of bands    NBANDS=     10
   number of dos      NEDOS =    301   number of ions     NIONS =      6
   non local maximal  LDIM  =      4   non local SUM 2l+1 LMDIM =      8
   total plane-waves  NPLWV = 110592
   max r-space proj   IRMAX =      1   max aug-charges    IRDMAX=   1504
   dimension x,y,z NGX =    48 NGY =   48 NGZ =   48
   dimension x,y,z NGXF=    96 NGYF=   96 NGZF=   96
   support grid    NGXF=    96 NGYF=   96 NGZF=   96
   ions per type =               4   2
 NGX,Y,Z   is equivalent  to a cutoff of   7.98,  7.98,  7.98 a.u.
 NGXF,Y,Z  is equivalent  to a cutoff of  15.96, 15.96, 15.96 a.u.


 I would recommend the setting:
   dimension x,y,z NGX =    46 NGY =   46 NGZ =   46
 SYSTEM =  unknown system                          
 POSCAR =   H  C                                   

 Startparameter for this run:
   NWRITE =      2    write-flag & timer
   PREC   = normal    normal or accurate (medium, high low for compatibility)
   ISTART =      0    job   : 0-new  1-cont  2-samecut
   ICHARG =      2    charge: 1-file 2-atom 10-const
   ISPIN  =      2    spin polarized calculation?
   LNONCOLLINEAR =      F non collinear calculations
   LSORBIT =      F    spin-orbit coupling
   INIWAV =      1    electr: 0-lowe 1-rand  2-diag
   LASPH  =      F    aspherical Exc in radial PAW
   METAGGA=      F    non-selfconsistent MetaGGA calc.

 Electronic Relaxation 1
   ENCUT  =  350.0 eV  25.72 Ry    5.07 a.u.  15.25 15.25 15.25*2*pi/ulx,y,z
   ENINI  =  350.0     initial cutoff
   ENAUG  =  644.9 eV  augmentation charge cutoff
   NELM   =     60;   NELMIN=  2; NELMDL= -5     # of ELM steps 
   EDIFF  = 0.1E-03   stopping-criterion for ELM
   LREAL  =      F    real-space projection
   NLSPLINE    = F    spline interpolate recip. space projectors
   LCOMPAT=      F    compatible to vasp.4.4
   GGA_COMPAT  = T    GGA compatible to vasp.4.4-vasp.4.6
   LMAXPAW     = -100 max onsite density
   LMAXMIX     =    2 max onsite mixed and CHGCAR
   VOSKOWN=      0    Vosko Wilk Nusair interpolation
   ROPT   =    0.00000   0.00000
 Ionic relaxation
   EDIFFG = 0.1E-02   stopping-criterion for IOM
   NSW    =     10    number of steps for IOM
   NBLOCK =      1;   KBLOCK =     10    inner block; outer block 
   IBRION =      2    ionic relax: 0-MD 1-quasi-New 2-CG
   NFREE  =      1    steps in history (QN), initial steepest desc. (CG)
   ISIF   =      2    stress and relaxation
   IWAVPR =     11    prediction:  0-non 1-charg 2-wave 3-comb
   ISYM   =      2    0-nonsym 1-usesym 2-fastsym
   LCORR  =      T    Harris-Foulkes like correction to forces

   POTIM  = 0.5000    time-step for ionic-motion
   TEIN   =    0.0    initial temperature
   TEBEG  =    0.0;   TEEND  =   0.0 temperature during run
   SMASS  =  -3.00    Nose mass-parameter (am)
   estimated Nose-frequenzy (Omega)   =  0.10E-29 period in steps =****** mass=  -0.229E-26a.u.
   SCALEE = 1.0000    scale energy and forces
   NPACO  =    256;   APACO  = 16.0  distance and # of slots for P.C.
   PSTRESS=    0.0 pullay stress

  Mass of Ions in am
   POMASS =   1.00 12.01
  Ionic Valenz
   ZVAL   =   1.00  4.00
  Atomic Wigner-Seitz radii
   RWIGS  =  -1.00 -1.00
  virtual crystal weights 
   VCA    =   1.00  1.00
   NELECT =      12.0000    total number of electrons
   NUPDOWN=      -1.0000    fix difference up-down

 DOS related values:
   EMIN   =  10.00;   EMAX   =-10.00  energy-range for DOS
   EFERMI =   0.00
   ISMEAR =     0;   SIGMA  =   0.20  broadening in eV -4-tet -1-fermi 0-gaus

 Electronic relaxation 2 (details)
   IALGO  =     38    algorithm
   LDIAG  =      T    sub-space diagonalisation (order eigenvalues)
   LSUBROT=      T    optimize rotation matrix (better conditioning)
   TURBO    =      0    0=normal 1=particle mesh
   IRESTART =      0    0=no restart 2=restart with 2 vectors
   NREBOOT  =      0    no. of reboots
   NMIN     =      0    reboot dimension
   EREF     =   0.00    reference energy to select bands
   IMIX   =      4    mixing-type and parameters
     AMIX     =   0.40;   BMIX     =  1.00
     AMIX_MAG =   1.60;   BMIX_MAG =  1.00
     AMIN     =   0.10
     WC   =   100.;   INIMIX=   1;  MIXPRE=   1

 Intra band minimization:
   WEIMIN = 0.0010     energy-eigenvalue tresh-hold
   EBREAK =  0.25E-05  absolut break condition
   DEPER  =   0.30     relativ break condition  

   TIME   =   0.40     timestep for ELM

  volume/ion in A,a.u.               =     166.67      1124.72
  Fermi-wavevector in a.u.,A,eV,Ry     =   0.374802  0.708273  1.911299  0.140477
  Thomas-Fermi vector in A             =   1.305434
 
 Write flags
   LWAVE  =      T    write WAVECAR
   LCHARG =      T    write CHGCAR
   LVTOT  =      F    write LOCPOT, total local potential
   LVHAR  =      F    write LOCPOT, Hartree potential only
   LELF   =      F    write electronic localiz. function (ELF)
   LORBIT =      0    0 simple, 1 ext, 2 COOP (PROOUT)


 Dipole corrections
   LMONO  =      F    monopole corrections only (constant potential shift)
   LDIPOL =      F    correct potential (dipole corrections)
   IDIPOL =      0    1-x, 2-y, 3-z, 4-all directions 
   EPSILON=  1.0000000 bulk dielectric constant

 Exchange correlation treatment:
   GGA     =    --    GGA type
   LEXCH   =     8    internal setting for exchange type
   VOSKOWN=      0    Vosko Wilk Nusair interpolation
   LHFCALC =     F    Hartree Fock is set to
   LHFONE  =     F    Hartree Fock one center treatment
   AEXX    =    0.0000 exact exchange contribution

 Linear response parameters
   LEPSILON=     F    determine dielectric tensor
   LRPA    =     F    only Hartree local field effects (RPA)
   LNABLA  =     F    use nabla operator in PAW spheres
   LVEL    =     F    velocity operator in full k-point grid
   LINTERFAST=   F  fast interpolation
   KINTER  =     0    interpolate to denser k-point grid
   CSHIFT  =0.1000    complex shift for real part using Kramers Kronig
   OMEGAMAX=  -1.0    maximum frequency
   RTIME   =    0.100 relaxation time in fs

 Orbital magnetization related:
   ORBITALMAG=     F  switch on orbital magnetization
   LCHIMAG   =     F  perturbation theory with respect to B field
   DQ        =  0.001000  dq finite difference perturbation B field



--------------------------------------------------------------------------------------------------------


 conjugate gradient relaxation of ions
 charge density and potential will be updated during run
 spin polarized calculation
 Variant of blocked Davidson
 Davidson routine will perform the subspace rotation
 perform sub-space diagonalisation
    after iterative eigenvector-optimisation
 modified Broyden-mixing scheme, WC =      100.0
 initial mixing is a Kerker type mixing with AMIX =  0.4000 and BMIX =      1.0000
 Hartree-type preconditioning will be used
 using additional bands            4
 reciprocal scheme for non local part
 calculate Harris-corrections to forces 
   (improved forces if not selfconsistent)
 use gradient corrections 
 use of overlap-Matrix (Vanderbilt PP)
 Gauss-broadening in eV      SIGMA  =   0.20


--------------------------------------------------------------------------------------------------------


  energy-cutoff  :      350.00
  volume of cell :     1000.00
      direct lattice vectors                 reciprocal lattice vectors
    10.000000000  0.000000000  0.000000000     0.100000000  0.000000000  0.000000000
     0.000000000 10.000000000  0.000000000     0.000000000  0.100000000  0.000000000
     0.000000000  0.000000000 10.000000000     0.000000000  0.000000000  0.100000000

  length of vectors
    10.000000000 10.000000000 10.000000000     0.100000000  0.100000000  0.100000000


 
 k-points in units of 2pi/SCALE and weight: KPOINTS created by Atomic Simulation Env
   0.00000000  0.00000000  0.00000000       1.000
 
 k-points in reciprocal lattice and weights: KPOINTS created by Atomic Simulation Env
   0.00000000  0.00000000  0.00000000       1.000
 
 position of ions in fractional coordinates (direct lattice) 
   0.50000000  0.59228320  0.62376950
   0.50000000  0.40771680  0.62376950
   0.50000000  0.59228320  0.37623050
   0.50000000  0.40771680  0.37623050
   0.50000000  0.50000000  0.56674800
   0.50000000  0.50000000  0.43325200
 
 position of ions in cartesian coordinates  (Angst):
   5.00000000  5.92283200  6.23769500
   5.00000000  4.07716800  6.23769500
   5.00000000  5.92283200  3.76230500
   5.00000000  4.07716800  3.76230500
   5.00000000  5.00000000  5.66748000
   5.00000000  5.00000000  4.33252000
 


--------------------------------------------------------------------------------------------------------


 k-point  1 :  0.00000.00000.0000  plane waves:   14795

 maximum and minimum number of plane-waves per node :     14795    14795

 maximum number of plane-waves:     14795
 maximum index in each direction: 
   IXMAX=   15   IYMAX=   15   IZMAX=   15
   IXMIN=  -15   IYMIN=  -15   IZMIN=  -15

 WARNING: aliasing errors must be expected set NGX to  62 to avoid them
 WARNING: aliasing errors must be expected set NGY to  62 to avoid them
 WARNING: aliasing errors must be expected set NGZ to  62 to avoid them
 aliasing errors are usually negligible using standard VASP settings
 and one can safely disregard these warnings

 serial   3D FFT for wavefunctions
 parallel 3D FFT for charge:
    minimum data exchange during FFTs selected (reduces bandwidth)


 total amount of memory used by VASP on root node   149710. kBytes
========================================================================

   base      :      30000. kBytes
   nonl-proj :       3314. kBytes
   fftplans  :      30736. kBytes
   grid      :      80879. kBytes
   one-center:         36. kBytes
   wavefun   :       4745. kBytes
 
 Broyden mixing: mesh for mixing (old mesh)
   NGX = 31   NGY = 31   NGZ = 31
  (NGX  = 96   NGY  = 96   NGZ  = 96)
  gives a total of  29791 points

 initial charge density was supplied:
 charge density of overlapping atoms calculated
 number of electron      12.0000000 magnetization       6.0000000
 keeping initial charge density in first step


--------------------------------------------------------------------------------------------------------


 Maximum index for augmentation-charges         1246 (set IRDMAX)


--------------------------------------------------------------------------------------------------------


 First call to EWALD:  gamma=   0.177
 Maximum number of real-space cells 3x 3x 3
 Maximum number of reciprocal cells 3x 3x 3

    FEWALD:  cpu time    0.00: real time    0.00


----------------------------------------- Iteration    1(   1)  ---------------------------------------


    POTLOK:  cpu time    3.41: real time    3.41
    SETDIJ:  cpu time    0.08: real time    0.08
     EDDAV:  cpu time    2.18: real time    2.19
       DOS:  cpu time    0.00: real time    0.00
    --------------------------------------------
      LOOP:  cpu time    5.67: real time    5.68

 eigenvalue-minimisations  :    56
 total energy-change (2. order) : 0.5937930E+02  (-0.2882121E+03)
 number of electron      12.0000000 magnetization       6.0000000
 augmentation part       12.0000000 magnetization       6.0000000

 Free energy of the ion-electron system (eV)
  ---------------------------------------------------
  alpha Z        PSCENC =         0.60581865
  Ewald energy   TEWEN  =       241.03674955
  -1/2 Hartree   DENC   =      -458.62733927
  -exchange  EXHF       =         0.00000000
  -V(xc)+E(xc)   XCENC  =        37.37628063
  PAW double counting   =        77.52000561      -79.83705309
  entropy T*S    EENTRO =        -0.10106500
  eigenvalues    EBANDS =      -102.60786620
  atomic energy  EATOM  =       344.01377183
  ---------------------------------------------------
  free energy    TOTEN  =        59.37930271 eV

  energy without entropy =       59.48036770  energy(sigma->0) =       59.42983521


--------------------------------------------------------------------------------------------------------




----------------------------------------- Iteration    1(   2)  ---------------------------------------


     EDDAV:  cpu time    2.25: real time    2.25
       DOS:  cpu time    0.00: real time    0.00
    --------------------------------------------
      LOOP:  cpu time    2.25: real time    2.27

 eigenvalue-minimisations  :    58
 total energy-change (2. order) :-0.7324614E+02  (-0.6484233E+02)
 number of electron      12.0000000 magnetization       6.0000000
 augmentation part       12.0000000 magnetization       6.0000000

 Free energy of the ion-electron system (eV)
  ---------------------------------------------------
  alpha Z        PSCENC =         0.60581865
  Ewald energy   TEWEN  =       241.03674955
  -1/2 Hartree   DENC   =      -458.62733927
  -exchange  EXHF       =         0.00000000
  -V(xc)+E(xc)   XCENC  =        37.37628063
  PAW double counting   =        77.52000561      -79.83705309
  entropy T*S    EENTRO =         0.00000000
  eigenvalues    EBANDS =      -175.95506865
  atomic energy  EATOM  =       344.01377183
  ---------------------------------------------------
  free energy    TOTEN  =       -13.86683475 eV

  energy without entropy =      -13.86683475  energy(sigma->0) =      -13.86683475


--------------------------------------------------------------------------------------------------------




----------------------------------------- Iteration    1(   3)  ---------------------------------------


     EDDAV:  cpu time    2.32: real time    2.32
       DOS:  cpu time    0.00: real time    0.00
    --------------------------------------------
      LOOP:  cpu time    2.32: real time    2.34

 eigenvalue-minimisations  :    62
 total energy-change (2. order) :-0.1383436E+02  (-0.1382551E+02)
 number of electron      12.0000000 magnetization       6.0000000
 augmentation part       12.0000000 magnetization       6.0000000

 Free energy of the ion-electron system (eV)
  ---------------------------------------------------
  alpha Z        PSCENC =         0.60581865
  Ewald energy   TEWEN  =       241.03674955
  -1/2 Hartree   DENC   =      -458.62733927
  -exchange  EXHF       =         0.00000000
  -V(xc)+E(xc)   XCENC  =        37.37628063
  PAW double counting   =        77.52000561      -79.83705309
  entropy T*S    EENTRO =         0.00000000
  eigenvalues    EBANDS =      -189.78942886
  atomic energy  EATOM  =       344.01377183
  ---------------------------------------------------
  free energy    TOTEN  =       -27.70119495 eV

  energy without entropy =      -27.70119495  energy(sigma->0) =      -27.70119495


--------------------------------------------------------------------------------------------------------




----------------------------------------- Iteration    1(   4)  ---------------------------------------


     EDDAV:  cpu time    1.83: real time    1.83
       DOS:  cpu time    0.00: real time    0.00
    --------------------------------------------
      LOOP:  cpu time    1.83: real time    1.84

 eigenvalue-minimisations  :    46
 total energy-change (2. order) :-0.3054106E+00  (-0.3052858E+00)
 number of electron      12.0000000 magnetization       6.0000000
 augmentation part       12.0000000 magnetization       6.0000000

 Free energy of the ion-electron system (eV)
  ---------------------------------------------------
  alpha Z        PSCENC =         0.60581865
  Ewald energy   TEWEN  =       241.03674955
  -1/2 Hartree   DENC   =      -458.62733927
  -exchange  EXHF       =         0.00000000
  -V(xc)+E(xc)   XCENC  =        37.37628063
  PAW double counting   =        77.52000561      -79.83705309
  entropy T*S    EENTRO =         0.00000000
  eigenvalues    EBANDS =      -190.09483941
  atomic energy  EATOM  =       344.01377183
  ---------------------------------------------------
  free energy    TOTEN  =       -28.00660551 eV

  energy without entropy =      -28.00660551  energy(sigma->0) =      -28.00660551


--------------------------------------------------------------------------------------------------------




----------------------------------------- Iteration    1(   5)  ---------------------------------------


     EDDAV:  cpu time    2.27: real time    2.28
       DOS:  cpu time    0.00: real time    0.00
    CHARGE:  cpu time    0.51: real time    0.51
    MIXING:  cpu time    0.07: real time    0.07
    --------------------------------------------
      LOOP:  cpu time    2.87: real time    2.88

 eigenvalue-minimisations  :    60
 total energy-change (2. order) :-0.4653110E-02  (-0.4653052E-02)
 number of electron      11.9999994 magnetization       3.2827854
 augmentation part        0.3101889 magnetization       3.2882054

 Broyden mixing:
  rms(total) = 0.15809E+01    rms(broyden)= 0.15802E+01
  rms(prec ) = 0.18768E+01
  weight for this iteration     100.00

 Free energy of the ion-electron system (eV)
  ---------------------------------------------------
  alpha Z        PSCENC =         0.60581865
  Ewald energy   TEWEN  =       241.03674955
  -1/2 Hartree   DENC   =      -458.62733927
  -exchange  EXHF       =         0.00000000
  -V(xc)+E(xc)   XCENC  =        37.37628063
  PAW double counting   =        77.52000561      -79.83705309
  entropy T*S    EENTRO =         0.00000000
  eigenvalues    EBANDS =      -190.09949252
  atomic energy  EATOM  =       344.01377183
  ---------------------------------------------------
  free energy    TOTEN  =       -28.01125862 eV

  energy without entropy =      -28.01125862  energy(sigma->0) =      -28.01125862


--------------------------------------------------------------------------------------------------------




----------------------------------------- Iteration    1(   6)  ---------------------------------------


    POTLOK:  cpu time    3.72: real time    3.72
    SETDIJ:  cpu time    0.07: real time    0.07
     EDDAV:  cpu time    1.63: real time    1.63
       DOS:  cpu time    0.00: real time    0.00
    CHARGE:  cpu time    0.40: real time    0.40
    MIXING:  cpu time    0.07: real time    0.07
    --------------------------------------------
      LOOP:  cpu time    5.89: real time    5.91

 eigenvalue-minimisations  :    42
 total energy-change (2. order) : 0.1464434E+02  (-0.4029281E+01)
 number of electron      11.9999998 magnetization       1.6243519
 augmentation part        0.3010264 magnetization       1.5939363

 Broyden mixing:
  rms(total) = 0.64711E+00    rms(broyden)= 0.64650E+00
  rms(prec ) = 0.82660E+00
  weight for this iteration     100.00

 eigenvalues of (default mixing * dielectric matrix)
  average eigenvalue GAMMA=   0.9487
  0.9487

 Free energy of the ion-electron system (eV)
  ---------------------------------------------------
  alpha Z        PSCENC =         0.60581865
  Ewald energy   TEWEN  =       241.03674955
  -1/2 Hartree   DENC   =      -487.67026269
  -exchange  EXHF       =         0.00000000
  -V(xc)+E(xc)   XCENC  =        53.10590415
  PAW double counting   =       123.53554152     -126.16760330
  entropy T*S    EENTRO =         0.00000000
  eigenvalues    EBANDS =      -161.82684068
  atomic energy  EATOM  =       344.01377183
  ---------------------------------------------------
  free energy    TOTEN  =       -13.36692096 eV

  energy without entropy =      -13.36692096  energy(sigma->0) =      -13.36692096


--------------------------------------------------------------------------------------------------------




----------------------------------------- Iteration    1(   7)  ---------------------------------------


    POTLOK:  cpu time    4.10: real time    4.11
    SETDIJ:  cpu time    0.08: real time    0.08
     EDDAV:  cpu time    1.82: real time    1.82
       DOS:  cpu time    0.00: real time    0.00
    CHARGE:  cpu time    0.50: real time    0.50
    MIXING:  cpu time    0.09: real time    0.09
    --------------------------------------------
      LOOP:  cpu time    6.59: real time    6.75

 eigenvalue-minimisations  :    42
 total energy-change (2. order) :-0.1383019E+02  (-0.1572366E+01)
 number of electron      12.0000001 magnetization       0.8011192
 augmentation part        0.2734678 magnetization       0.7890837

 Broyden mixing:
  rms(total) = 0.31784E+00    rms(broyden)= 0.31763E+00
  rms(prec ) = 0.38317E+00
  weight for this iteration     100.00

 eigenvalues of (default mixing * dielectric matrix)
  average eigenvalue GAMMA=   1.0338
  1.0338  1.0338

 Free energy of the ion-electron system (eV)
  ---------------------------------------------------
  alpha Z        PSCENC =         0.60581865
  Ewald energy   TEWEN  =       241.03674955
  -1/2 Hartree   DENC   =      -505.08634754
  -exchange  EXHF       =         0.00000000
  -V(xc)+E(xc)   XCENC  =        42.69766191
  PAW double counting   =       148.85288298     -151.58992177
  entropy T*S    EENTRO =         0.00000000
  eigenvalues    EBANDS =      -147.72773154
  atomic energy  EATOM  =       344.01377183
  ---------------------------------------------------
  free energy    TOTEN  =       -27.19711593 eV

  energy without entropy =      -27.19711593  energy(sigma->0) =      -27.19711593


--------------------------------------------------------------------------------------------------------




----------------------------------------- Iteration    1(   8)  ---------------------------------------


    POTLOK:  cpu time    4.10: real time    4.10
    SETDIJ:  cpu time    0.08: real time    0.08
     EDDAV:  cpu time    1.83: real time    1.83
       DOS:  cpu time    0.00: real time    0.00
    CHARGE:  cpu time    0.49: real time    0.49
    MIXING:  cpu time    0.09: real time    0.09
    --------------------------------------------
      LOOP:  cpu time    6.59: real time    6.61

 eigenvalue-minimisations  :    42
 total energy-change (2. order) :-0.2393497E+01  (-0.5572873E-01)
 number of electron      12.0000002 magnetization       0.1624241
 augmentation part        0.2710394 magnetization       0.1555958

 Broyden mixing:
  rms(total) = 0.18037E+00    rms(broyden)= 0.18034E+00
  rms(prec ) = 0.22384E+00
  weight for this iteration     100.00

 eigenvalues of (default mixing * dielectric matrix)
  average eigenvalue GAMMA=   1.1692
  1.7178  1.0442  0.7455

 Free energy of the ion-electron system (eV)
  ---------------------------------------------------
  alpha Z        PSCENC =         0.60581865
  Ewald energy   TEWEN  =       241.03674955
  -1/2 Hartree   DENC   =      -508.54657249
  -exchange  EXHF       =         0.00000000
  -V(xc)+E(xc)   XCENC  =        40.63970465
  PAW double counting   =       153.68680927     -156.37557839
  entropy T*S    EENTRO =         0.00000000
  eigenvalues    EBANDS =      -144.65131596
  atomic energy  EATOM  =       344.01377183
  ---------------------------------------------------
  free energy    TOTEN  =       -29.59061288 eV

  energy without entropy =      -29.59061288  energy(sigma->0) =      -29.59061288


--------------------------------------------------------------------------------------------------------




----------------------------------------- Iteration    1(   9)  ---------------------------------------


    POTLOK:  cpu time    4.06: real time    4.06
    SETDIJ:  cpu time    0.08: real time    0.08
     EDDAV:  cpu time    1.75: real time    1.76
       DOS:  cpu time    0.00: real time    0.00
    CHARGE:  cpu time    0.49: real time    0.49
    MIXING:  cpu time    0.10: real time    0.10
    --------------------------------------------
      LOOP:  cpu time    6.49: real time    6.51

 eigenvalue-minimisations  :    40
 total energy-change (2. order) :-0.2128701E+01  (-0.1222507E+00)
 number of electron      12.0000002 magnetization       0.0048231
 augmentation part        0.2662877 magnetization       0.0010040

 Broyden mixing:
  rms(total) = 0.46143E-01    rms(broyden)= 0.46081E-01
  rms(prec ) = 0.68937E-01
  weight for this iteration     100.00

 eigenvalues of (default mixing * dielectric matrix)
  average eigenvalue GAMMA=   1.2515
  2.0713  1.2755  0.9488  0.7105

 Free energy of the ion-electron system (eV)
  ---------------------------------------------------
  alpha Z        PSCENC =         0.60581865
  Ewald energy   TEWEN  =       241.03674955
  -1/2 Hartree   DENC   =      -512.58051344
  -exchange  EXHF       =         0.00000000
  -V(xc)+E(xc)   XCENC  =        39.21191686
  PAW double counting   =       158.43728324     -161.09597024
  entropy T*S    EENTRO =         0.00000000
  eigenvalues    EBANDS =      -141.34836986
  atomic energy  EATOM  =       344.01377183
  ---------------------------------------------------
  free energy    TOTEN  =       -31.71931340 eV

  energy without entropy =      -31.71931340  energy(sigma->0) =      -31.71931340


--------------------------------------------------------------------------------------------------------




----------------------------------------- Iteration    1(  10)  ---------------------------------------


    POTLOK:  cpu time    4.09: real time    4.09
    SETDIJ:  cpu time    0.08: real time    0.08
     EDDAV:  cpu time    1.83: real time    1.84
       DOS:  cpu time    0.00: real time    0.00
    CHARGE:  cpu time    0.49: real time    0.49
    MIXING:  cpu time    0.10: real time    0.10
    --------------------------------------------
      LOOP:  cpu time    6.61: real time    6.62

 eigenvalue-minimisations  :    42
 total energy-change (2. order) :-0.1898271E+00  (-0.1403653E-01)
 number of electron      12.0000002 magnetization       0.0123744
 augmentation part        0.2648361 magnetization       0.0119024

 Broyden mixing:
  rms(total) = 0.22426E-01    rms(broyden)= 0.22384E-01
  rms(prec ) = 0.42216E-01
  weight for this iteration     100.00

 eigenvalues of (default mixing * dielectric matrix)
  average eigenvalue GAMMA=   1.1410
  2.0746  1.3804  0.8130  0.8130  0.6239

 Free energy of the ion-electron system (eV)
  ---------------------------------------------------
  alpha Z        PSCENC =         0.60581865
  Ewald energy   TEWEN  =       241.03674955
  -1/2 Hartree   DENC   =      -513.82595748
  -exchange  EXHF       =         0.00000000
  -V(xc)+E(xc)   XCENC  =        39.13558321
  PAW double counting   =       159.37585291     -162.02461337
  entropy T*S    EENTRO =         0.00000000
  eigenvalues    EBANDS =      -140.22634582
  atomic energy  EATOM  =       344.01377183
  ---------------------------------------------------
  free energy    TOTEN  =       -31.90914052 eV

  energy without entropy =      -31.90914052  energy(sigma->0) =      -31.90914052


--------------------------------------------------------------------------------------------------------




----------------------------------------- Iteration    1(  11)  ---------------------------------------


    POTLOK:  cpu time    3.99: real time    3.99
    SETDIJ:  cpu time    0.08: real time    0.08
     EDDAV:  cpu time    2.03: real time    2.03
       DOS:  cpu time    0.00: real time    0.00
    CHARGE:  cpu time    0.52: real time    0.53
    MIXING:  cpu time    0.11: real time    0.11
    --------------------------------------------
      LOOP:  cpu time    6.74: real time    6.75

 eigenvalue-minimisations  :    50
 total energy-change (2. order) :-0.3817529E-02  (-0.5309177E-03)
 number of electron      12.0000002 magnetization      -0.0048237
 augmentation part        0.2647634 magnetization      -0.0049583

 Broyden mixing:
  rms(total) = 0.13411E-01    rms(broyden)= 0.13406E-01
  rms(prec ) = 0.31128E-01
  weight for this iteration     100.00

 eigenvalues of (default mixing * dielectric matrix)
  average eigenvalue GAMMA=   1.2859
  2.1100  2.1100  1.1613  0.9434  0.7254  0.6652

 Free energy of the ion-electron system (eV)
  ---------------------------------------------------
  alpha Z        PSCENC =         0.60581865
  Ewald energy   TEWEN  =       241.03674955
  -1/2 Hartree   DENC   =      -514.13306144
  -exchange  EXHF       =         0.00000000
  -V(xc)+E(xc)   XCENC  =        39.12260375
  PAW double counting   =       158.96347149     -161.60928174
  entropy T*S    EENTRO =         0.00000000
  eigenvalues    EBANDS =      -139.91303015
  atomic energy  EATOM  =       344.01377183
  ---------------------------------------------------
  free energy    TOTEN  =       -31.91295805 eV

  energy without entropy =      -31.91295805  energy(sigma->0) =      -31.91295805


--------------------------------------------------------------------------------------------------------




----------------------------------------- Iteration    1(  12)  ---------------------------------------


    POTLOK:  cpu time    4.01: real time    4.01
    SETDIJ:  cpu time    0.08: real time    0.08
     EDDAV:  cpu time    1.74: real time    1.74
       DOS:  cpu time    0.00: real time    0.00
    CHARGE:  cpu time    0.53: real time    0.53
    MIXING:  cpu time    0.12: real time    0.12
    --------------------------------------------
      LOOP:  cpu time    6.48: real time    6.49

 eigenvalue-minimisations  :    40
 total energy-change (2. order) : 0.3433508E-02  (-0.4829212E-03)
 number of electron      12.0000002 magnetization      -0.0158088
 augmentation part        0.2648298 magnetization      -0.0156486

 Broyden mixing:
  rms(total) = 0.10901E-01    rms(broyden)= 0.10899E-01
  rms(prec ) = 0.19416E-01
  weight for this iteration     100.00

 eigenvalues of (default mixing * dielectric matrix)
  average eigenvalue GAMMA=   1.2640
  2.2529  2.2529  1.2831  0.8433  0.8433  0.6864  0.6864

 Free energy of the ion-electron system (eV)
  ---------------------------------------------------
  alpha Z        PSCENC =         0.60581865
  Ewald energy   TEWEN  =       241.03674955
  -1/2 Hartree   DENC   =      -515.15852798
  -exchange  EXHF       =         0.00000000
  -V(xc)+E(xc)   XCENC  =        39.13733252
  PAW double counting   =       158.76805775     -161.41080313
  entropy T*S    EENTRO =         0.00000000
  eigenvalues    EBANDS =      -138.90192373
  atomic energy  EATOM  =       344.01377183
  ---------------------------------------------------
  free energy    TOTEN  =       -31.90952454 eV

  energy without entropy =      -31.90952454  energy(sigma->0) =      -31.90952454


--------------------------------------------------------------------------------------------------------




----------------------------------------- Iteration    1(  13)  ---------------------------------------


    POTLOK:  cpu time    4.01: real time    4.01
    SETDIJ:  cpu time    0.08: real time    0.08
     EDDAV:  cpu time    1.73: real time    1.73
       DOS:  cpu time    0.00: real time    0.00
    CHARGE:  cpu time    0.54: real time    0.54
    MIXING:  cpu time    0.14: real time    0.14
    --------------------------------------------
      LOOP:  cpu time    6.50: real time    6.52

 eigenvalue-minimisations  :    40
 total energy-change (2. order) :-0.2611305E-02  (-0.8341508E-04)
 number of electron      12.0000002 magnetization      -0.0076366
 augmentation part        0.2646277 magnetization      -0.0075259

 Broyden mixing:
  rms(total) = 0.61912E-02    rms(broyden)= 0.61911E-02
  rms(prec ) = 0.13496E-01
  weight for this iteration     100.00

 eigenvalues of (default mixing * dielectric matrix)
  average eigenvalue GAMMA=   1.3301
  2.8983  2.0722  1.5066  0.9905  0.9905  0.7758  0.7661  0.6403

 Free energy of the ion-electron system (eV)
  ---------------------------------------------------
  alpha Z        PSCENC =         0.60581865
  Ewald energy   TEWEN  =       241.03674955
  -1/2 Hartree   DENC   =      -515.67854104
  -exchange  EXHF       =         0.00000000
  -V(xc)+E(xc)   XCENC  =        39.15618938
  PAW double counting   =       158.98040282     -161.62437220
  entropy T*S    EENTRO =         0.00000000
  eigenvalues    EBANDS =      -138.40215484
  atomic energy  EATOM  =       344.01377183
  ---------------------------------------------------
  free energy    TOTEN  =       -31.91213585 eV

  energy without entropy =      -31.91213585  energy(sigma->0) =      -31.91213585


--------------------------------------------------------------------------------------------------------




----------------------------------------- Iteration    1(  14)  ---------------------------------------


    POTLOK:  cpu time    4.01: real time    4.01
    SETDIJ:  cpu time    0.08: real time    0.08
     EDDAV:  cpu time    1.74: real time    1.74
       DOS:  cpu time    0.00: real time    0.00
    CHARGE:  cpu time    0.53: real time    0.53
    MIXING:  cpu time    0.14: real time    0.14
    --------------------------------------------
      LOOP:  cpu time    6.51: real time    6.52

 eigenvalue-minimisations  :    40
 total energy-change (2. order) :-0.8886159E-02  (-0.2675741E-03)
 number of electron      12.0000002 magnetization       0.0051636
 augmentation part        0.2643143 magnetization       0.0052174

 Broyden mixing:
  rms(total) = 0.43849E-02    rms(broyden)= 0.43842E-02
  rms(prec ) = 0.79916E-02
  weight for this iteration     100.00

 eigenvalues of (default mixing * dielectric matrix)
  average eigenvalue GAMMA=   1.3736
  3.4938  2.1502  1.3726  1.3726  0.9060  0.9060  0.7676  0.7676  0.6259

 Free energy of the ion-electron system (eV)
  ---------------------------------------------------
  alpha Z        PSCENC =         0.60581865
  Ewald energy   TEWEN  =       241.03674955
  -1/2 Hartree   DENC   =      -516.37697644
  -exchange  EXHF       =         0.00000000
  -V(xc)+E(xc)   XCENC  =        39.17424652
  PAW double counting   =       158.95663193     -161.60213002
  entropy T*S    EENTRO =         0.00000000
  eigenvalues    EBANDS =      -137.72913404
  atomic energy  EATOM  =       344.01377183
  ---------------------------------------------------
  free energy    TOTEN  =       -31.92102201 eV

  energy without entropy =      -31.92102201  energy(sigma->0) =      -31.92102201


--------------------------------------------------------------------------------------------------------




----------------------------------------- Iteration    1(  15)  ---------------------------------------


    POTLOK:  cpu time    4.02: real time    4.02
    SETDIJ:  cpu time    0.08: real time    0.08
     EDDAV:  cpu time    1.87: real time    1.87
       DOS:  cpu time    0.00: real time    0.00
    CHARGE:  cpu time    0.52: real time    0.52
    MIXING:  cpu time    0.15: real time    0.15
    --------------------------------------------
      LOOP:  cpu time    6.65: real time    6.67

 eigenvalue-minimisations  :    44
 total energy-change (2. order) :-0.2556944E-02  (-0.4479291E-04)
 number of electron      12.0000002 magnetization       0.0029444
 augmentation part        0.2642994 magnetization       0.0028982

 Broyden mixing:
  rms(total) = 0.22626E-02    rms(broyden)= 0.22621E-02
  rms(prec ) = 0.49736E-02
  weight for this iteration     100.00

 eigenvalues of (default mixing * dielectric matrix)
  average eigenvalue GAMMA=   1.5582
  4.9450  2.3470  1.7111  1.7111  0.9223  0.9223  0.9433  0.7520  0.7058  0.6216

 Free energy of the ion-electron system (eV)
  ---------------------------------------------------
  alpha Z        PSCENC =         0.60581865
  Ewald energy   TEWEN  =       241.03674955
  -1/2 Hartree   DENC   =      -516.42831207
  -exchange  EXHF       =         0.00000000
  -V(xc)+E(xc)   XCENC  =        39.16955622
  PAW double counting   =       158.69697191     -161.34178245
  entropy T*S    EENTRO =         0.00000000
  eigenvalues    EBANDS =      -137.67635260
  atomic energy  EATOM  =       344.01377183
  ---------------------------------------------------
  free energy    TOTEN  =       -31.92357895 eV

  energy without entropy =      -31.92357895  energy(sigma->0) =      -31.92357895


--------------------------------------------------------------------------------------------------------




----------------------------------------- Iteration    1(  16)  ---------------------------------------


    POTLOK:  cpu time    3.93: real time    3.98
    SETDIJ:  cpu time    0.08: real time    0.08
     EDDAV:  cpu time    2.09: real time    2.15
       DOS:  cpu time    0.00: real time    0.00
    CHARGE:  cpu time    0.52: real time    0.52
    MIXING:  cpu time    0.16: real time    0.17
    --------------------------------------------
      LOOP:  cpu time    6.77: real time    6.92

 eigenvalue-minimisations  :    42
 total energy-change (2. order) :-0.2645989E-02  (-0.3299131E-04)
 number of electron      12.0000002 magnetization      -0.0009830
 augmentation part        0.2643150 magnetization      -0.0010243

 Broyden mixing:
  rms(total) = 0.16080E-02    rms(broyden)= 0.16077E-02
  rms(prec ) = 0.33329E-02
  weight for this iteration     100.00

 eigenvalues of (default mixing * dielectric matrix)
  average eigenvalue GAMMA=   1.5841
  5.5256  2.4997  2.0315  1.4328  1.1411  0.9564  0.9564  0.8065  0.7664  0.6905
  0.6185

 Free energy of the ion-electron system (eV)
  ---------------------------------------------------
  alpha Z        PSCENC =         0.60581865
  Ewald energy   TEWEN  =       241.03674955
  -1/2 Hartree   DENC   =      -516.45839980
  -exchange  EXHF       =         0.00000000
  -V(xc)+E(xc)   XCENC  =        39.16850291
  PAW double counting   =       158.64042238     -161.28448889
  entropy T*S    EENTRO =         0.00000000
  eigenvalues    EBANDS =      -137.64860157
  atomic energy  EATOM  =       344.01377183
  ---------------------------------------------------
  free energy    TOTEN  =       -31.92622494 eV

  energy without entropy =      -31.92622494  energy(sigma->0) =      -31.92622494


--------------------------------------------------------------------------------------------------------




----------------------------------------- Iteration    1(  17)  ---------------------------------------


    POTLOK:  cpu time    3.79: real time    3.79
    SETDIJ:  cpu time    0.08: real time    0.08
     EDDAV:  cpu time    1.96: real time    1.96
       DOS:  cpu time    0.00: real time    0.00
    CHARGE:  cpu time    0.50: real time    0.50
    MIXING:  cpu time    0.18: real time    0.18
    --------------------------------------------
      LOOP:  cpu time    6.51: real time    6.52

 eigenvalue-minimisations  :    42
 total energy-change (2. order) :-0.2004768E-02  (-0.3532270E-04)
 number of electron      12.0000002 magnetization      -0.0006592
 augmentation part        0.2642990 magnetization      -0.0006654

 Broyden mixing:
  rms(total) = 0.10998E-02    rms(broyden)= 0.10997E-02
  rms(prec ) = 0.19087E-02
  weight for this iteration     100.00

 eigenvalues of (default mixing * dielectric matrix)
  average eigenvalue GAMMA=   1.6490
  5.8560  2.8176  2.1145  1.7008  1.7008  0.9919  0.9194  0.9194  0.7483  0.7256
  0.6188  0.6745

 Free energy of the ion-electron system (eV)
  ---------------------------------------------------
  alpha Z        PSCENC =         0.60581865
  Ewald energy   TEWEN  =       241.03674955
  -1/2 Hartree   DENC   =      -516.45532096
  -exchange  EXHF       =         0.00000000
  -V(xc)+E(xc)   XCENC  =        39.16581537
  PAW double counting   =       158.67023373     -161.31411471
  entropy T*S    EENTRO =         0.00000000
  eigenvalues    EBANDS =      -137.65118318
  atomic energy  EATOM  =       344.01377183
  ---------------------------------------------------
  free energy    TOTEN  =       -31.92822971 eV

  energy without entropy =      -31.92822971  energy(sigma->0) =      -31.92822971


--------------------------------------------------------------------------------------------------------




----------------------------------------- Iteration    1(  18)  ---------------------------------------


    POTLOK:  cpu time    3.94: real time    3.94
    SETDIJ:  cpu time    0.08: real time    0.08
     EDDAV:  cpu time    1.82: real time    1.82
       DOS:  cpu time    0.00: real time    0.00
    CHARGE:  cpu time    0.53: real time    0.53
    MIXING:  cpu time    0.20: real time    0.20
    --------------------------------------------
      LOOP:  cpu time    6.57: real time    6.58

 eigenvalue-minimisations  :    42
 total energy-change (2. order) :-0.6653641E-03  (-0.7171802E-05)
 number of electron      12.0000002 magnetization      -0.0004013
 augmentation part        0.2642841 magnetization      -0.0003941

 Broyden mixing:
  rms(total) = 0.51116E-03    rms(broyden)= 0.51106E-03
  rms(prec ) = 0.95138E-03
  weight for this iteration     100.00

 eigenvalues of (default mixing * dielectric matrix)
  average eigenvalue GAMMA=   1.7666
  6.8682  3.6616  2.3404  2.0263  1.5295  0.9199  0.9199  1.0298  0.9361  0.7327
  0.7327  0.6175  0.6510

 Free energy of the ion-electron system (eV)
  ---------------------------------------------------
  alpha Z        PSCENC =         0.60581865
  Ewald energy   TEWEN  =       241.03674955
  -1/2 Hartree   DENC   =      -516.42170875
  -exchange  EXHF       =         0.00000000
  -V(xc)+E(xc)   XCENC  =        39.16234967
  PAW double counting   =       158.69348831     -161.33758634
  entropy T*S    EENTRO =         0.00000000
  eigenvalues    EBANDS =      -137.68177799
  atomic energy  EATOM  =       344.01377183
  ---------------------------------------------------
  free energy    TOTEN  =       -31.92889507 eV

  energy without entropy =      -31.92889507  energy(sigma->0) =      -31.92889507


--------------------------------------------------------------------------------------------------------




----------------------------------------- Iteration    1(  19)  ---------------------------------------


    POTLOK:  cpu time    4.01: real time    4.01
    SETDIJ:  cpu time    0.08: real time    0.08
     EDDAV:  cpu time    1.69: real time    1.69
       DOS:  cpu time    0.00: real time    0.00
    CHARGE:  cpu time    0.52: real time    0.52
    MIXING:  cpu time    0.20: real time    0.20
    --------------------------------------------
      LOOP:  cpu time    6.50: real time    6.52

 eigenvalue-minimisations  :    40
 total energy-change (2. order) :-0.1656192E-03  (-0.1268333E-05)
 number of electron      12.0000002 magnetization      -0.0002055
 augmentation part        0.2642876 magnetization      -0.0002020

 Broyden mixing:
  rms(total) = 0.31288E-03    rms(broyden)= 0.31284E-03
  rms(prec ) = 0.56884E-03
  weight for this iteration     100.00

 eigenvalues of (default mixing * dielectric matrix)
  average eigenvalue GAMMA=   1.7742
  7.2654  3.9495  2.4080  1.9852  1.5232  1.2131  0.9435  0.9435  1.0203  0.8292
  0.7710  0.7214  0.6188  0.6463

 Free energy of the ion-electron system (eV)
  ---------------------------------------------------
  alpha Z        PSCENC =         0.60581865
  Ewald energy   TEWEN  =       241.03674955
  -1/2 Hartree   DENC   =      -516.39940594
  -exchange  EXHF       =         0.00000000
  -V(xc)+E(xc)   XCENC  =        39.16088845
  PAW double counting   =       158.69145770     -161.33553204
  entropy T*S    EENTRO =         0.00000000
  eigenvalues    EBANDS =      -137.70280889
  atomic energy  EATOM  =       344.01377183
  ---------------------------------------------------
  free energy    TOTEN  =       -31.92906069 eV

  energy without entropy =      -31.92906069  energy(sigma->0) =      -31.92906069


--------------------------------------------------------------------------------------------------------




----------------------------------------- Iteration    1(  20)  ---------------------------------------


    POTLOK:  cpu time    3.97: real time    3.97
    SETDIJ:  cpu time    0.08: real time    0.08
     EDDAV:  cpu time    1.68: real time    1.68
       DOS:  cpu time    0.00: real time    0.00
    CHARGE:  cpu time    0.53: real time    0.53
    MIXING:  cpu time    0.21: real time    0.21
    --------------------------------------------
      LOOP:  cpu time    6.47: real time    6.48

 eigenvalue-minimisations  :    40
 total energy-change (2. order) :-0.1315726E-03  (-0.1062552E-05)
 number of electron      12.0000002 magnetization       0.0000026
 augmentation part        0.2643030 magnetization       0.0000028

 Broyden mixing:
  rms(total) = 0.24041E-03    rms(broyden)= 0.24023E-03
  rms(prec ) = 0.37688E-03
  weight for this iteration     100.00

 eigenvalues of (default mixing * dielectric matrix)
  average eigenvalue GAMMA=   1.8656
  7.7265  4.8210  2.6612  2.0835  1.9205  1.5491  0.9234  0.9234  1.0104  0.9639
  0.7526  0.6989  0.6989  0.6254  0.6254

 Free energy of the ion-electron system (eV)
  ---------------------------------------------------
  alpha Z        PSCENC =         0.60581865
  Ewald energy   TEWEN  =       241.03674955
  -1/2 Hartree   DENC   =      -516.38643635
  -exchange  EXHF       =         0.00000000
  -V(xc)+E(xc)   XCENC  =        39.16023019
  PAW double counting   =       158.68201724     -161.32599153
  entropy T*S    EENTRO =         0.00000000
  eigenvalues    EBANDS =      -137.71535185
  atomic energy  EATOM  =       344.01377183
  ---------------------------------------------------
  free energy    TOTEN  =       -31.92919227 eV

  energy without entropy =      -31.92919227  energy(sigma->0) =      -31.92919227


--------------------------------------------------------------------------------------------------------




----------------------------------------- Iteration    1(  21)  ---------------------------------------


    POTLOK:  cpu time    3.95: real time    3.96
    SETDIJ:  cpu time    0.08: real time    0.08
     EDDAV:  cpu time    1.81: real time    1.81
       DOS:  cpu time    0.00: real time    0.00
    --------------------------------------------
      LOOP:  cpu time    5.85: real time    5.87

 eigenvalue-minimisations  :    44
 total energy-change (2. order) :-0.3645664E-04  (-0.3044911E-06)
 number of electron      12.0000002 magnetization       0.0000026
 augmentation part        0.2643030 magnetization       0.0000028

 Free energy of the ion-electron system (eV)
  ---------------------------------------------------
  alpha Z        PSCENC =         0.60581865
  Ewald energy   TEWEN  =       241.03674955
  -1/2 Hartree   DENC   =      -516.38878666
  -exchange  EXHF       =         0.00000000
  -V(xc)+E(xc)   XCENC  =        39.16024737
  PAW double counting   =       158.68535976     -161.32939570
  entropy T*S    EENTRO =         0.00000000
  eigenvalues    EBANDS =      -137.71299352
  atomic energy  EATOM  =       344.01377183
  ---------------------------------------------------
  free energy    TOTEN  =       -31.92922872 eV

  energy without entropy =      -31.92922872  energy(sigma->0) =      -31.92922872


--------------------------------------------------------------------------------------------------------




 average (electrostatic) potential at core
  the test charge radii are     0.5201  0.6991
  (the norm of the test charge is              1.0000)
       1 -41.8629       2 -41.8629       3 -41.8629       4 -41.8629       5 -58.5163
       6 -58.5163
 
 
 
 E-fermi :  -5.5852     XC(G=0):  -0.8926     alpha+bet : -0.3112


 spin component 1

 k-point   1 :       0.0000    0.0000    0.0000
  band No.  band energies     occupation 
      1     -18.6247      1.00000
      2     -14.0822      1.00000
      3     -11.2694      1.00000
      4      -9.9908      1.00000
      5      -8.3244      1.00000
      6      -6.5652      1.00000
      7      -0.8959      0.00000
      8      -0.4025      0.00000
      9       0.7419      0.00000
     10       0.7525      0.00000

 spin component 2

 k-point   1 :       0.0000    0.0000    0.0000
  band No.  band energies     occupation 
      1     -18.6246      1.00000
      2     -14.0821      1.00000
      3     -11.2694      1.00000
      4      -9.9907      1.00000
      5      -8.3243      1.00000
      6      -6.5652      1.00000
      7      -0.8958      0.00000
      8      -0.4104      0.00000
      9       0.7371      0.00000
     10       0.7473      0.00000


--------------------------------------------------------------------------------------------------------


 soft charge-density along one line, spin component           1
         0         1         2         3         4         5         6         7         8         9
 total charge-density along one line
 
 soft charge-density along one line, spin component           2
         0         1         2         3         4         5         6         7         8         9
 total charge-density along one line
 
 pseudopotential strength for first ion, spin component:           1
 -2.346  -0.011   0.002   0.001   0.000
 -0.011   0.049   0.002   0.001   0.000
  0.002   0.002  -0.333   0.002   0.000
  0.001   0.001   0.002  -0.336   0.000
  0.000   0.000   0.000   0.000  -0.337
 pseudopotential strength for first ion, spin component:           2
 -2.346  -0.011   0.002   0.001   0.000
 -0.011   0.049   0.002   0.001   0.000
  0.002   0.002  -0.333   0.002   0.000
  0.001   0.001   0.002  -0.336   0.000
  0.000   0.000   0.000   0.000  -0.337
 total augmentation occupancy for first ion, spin component:           1
  1.751  -0.629  -0.257  -0.158   0.000
 -0.629   0.275   0.103   0.062   0.000
 -0.257   0.103   0.042   0.021   0.000
 -0.158   0.062   0.021   0.020   0.000
  0.000   0.000   0.000   0.000   0.010
 total augmentation occupancy for first ion, spin component:           2
  0.000   0.000   0.000   0.000   0.000
  0.000   0.000   0.000   0.000   0.000
  0.000   0.000   0.000   0.000   0.000
  0.000   0.000   0.000   0.000   0.000
  0.000   0.000   0.000   0.000   0.000


------------------------ aborting loop because EDIFF is reached ----------------------------------------


    CHARGE:  cpu time    0.54: real time    0.54
    FORLOC:  cpu time    0.17: real time    0.17
    FORNL :  cpu time    0.38: real time    0.39
    STRESS:  cpu time    0.99: real time    0.99
    FORHAR:  cpu time    0.58: real time    0.58
    MIXING:  cpu time    0.23: real time    0.23

  FORCE on cell =-STRESS in cart. coord.  units (eV):
  Direction    XX          YY          ZZ          XY          YZ          ZX
  --------------------------------------------------------------------------------------
  Alpha Z     0.60582     0.60582     0.60582
  Ewald    -100.22528    96.08144   245.18047     0.00000     0.00000     0.00000
  Hartree    95.89684   163.98932   256.52110     0.00000     0.00000     0.00000
  E(xc)     -42.07483   -41.02311   -40.86050     0.00000     0.00000     0.00000
  Local    -114.50281  -356.06213  -598.19702     0.00000     0.00000     0.00000
  n-local   -17.17085   -19.25276   -18.80910     0.00000     0.00000     0.00000
  augment    -0.12739    -0.24816    -0.23551     0.00000     0.00000     0.00000
  Kinetic   176.22993   155.43885   154.79824     0.00000     0.00000     0.00000
  Fock        0.00000     0.00000     0.00000     0.00000     0.00000     0.00000
  -------------------------------------------------------------------------------------
  Total      -1.36857    -0.47073    -0.99650     0.00000     0.00000     0.00000
  in kB      -2.19268    -0.75419    -1.59656     0.00000     0.00000     0.00000
  external pressure =       -1.51 kB  Pullay stress =        0.00 kB


 VOLUME and BASIS-vectors are now :
 -----------------------------------------------------------------------------
  energy-cutoff  :      350.00
  volume of cell :     1000.00
      direct lattice vectors                 reciprocal lattice vectors
    10.000000000  0.000000000  0.000000000     0.100000000  0.000000000  0.000000000
     0.000000000 10.000000000  0.000000000     0.000000000  0.100000000  0.000000000
     0.000000000  0.000000000 10.000000000     0.000000000  0.000000000  0.100000000

  length of vectors
    10.000000000 10.000000000 10.000000000     0.100000000  0.100000000  0.100000000


 FORCES acting on ions
    electron-ion (+dipol)            ewald-force                    non-local-force                 convergence-correction
 -----------------------------------------------------------------------------------------------
   0.237E-13 -.465E+02 -.367E+02   -.279E-16 0.517E+02 0.399E+02   0.000E+00 -.491E+01 -.302E+01   -.909E-14 0.706E-03 0.782E-03
   0.231E-13 0.465E+02 -.367E+02   0.297E-16 -.517E+02 0.399E+02   0.323E-26 0.491E+01 -.302E+01   -.669E-14 -.706E-03 0.782E-03
   0.248E-13 -.465E+02 0.367E+02   -.234E-16 0.517E+02 -.399E+02   -.323E-26 -.491E+01 0.302E+01   -.879E-14 0.706E-03 -.782E-03
   0.243E-13 0.465E+02 0.367E+02   0.236E-16 -.517E+02 -.399E+02   0.000E+00 0.491E+01 0.302E+01   -.639E-14 -.706E-03 -.782E-03
   0.117E-12 -.191E-12 -.985E+02   0.563E-16 0.224E-14 0.989E+02   0.000E+00 0.000E+00 -.708E+00   -.463E-13 -.489E-13 0.364E-02
   0.118E-12 0.216E-12 0.985E+02   -.561E-16 0.236E-14 -.989E+02   0.000E+00 0.000E+00 0.708E+00   -.487E-13 -.531E-13 -.364E-02
 -----------------------------------------------------------------------------------------------
   0.331E-12 0.153E-12 0.782E-12   0.221E-17 0.460E-14 0.000E+00   0.000E+00 0.888E-15 0.000E+00   -.126E-12 -.121E-12 -.351E-13
 
 
 POSITION                                       TOTAL-FORCE (eV/Angst)
 -----------------------------------------------------------------------------------
      5.00000      5.92283      6.23770         0.000000      0.282472      0.164426
      5.00000      4.07717      6.23770         0.000000     -0.282472      0.164426
      5.00000      5.92283      3.76230         0.000000      0.282472     -0.164426
      5.00000      4.07717      3.76230         0.000000     -0.282472     -0.164426
      5.00000      5.00000      5.66748         0.000000      0.000000     -0.354067
      5.00000      5.00000      4.33252         0.000000      0.000000      0.354067
 -----------------------------------------------------------------------------------
    total drift:                                0.000000      0.000000      0.000000


--------------------------------------------------------------------------------------------------------



  FREE ENERGIE OF THE ION-ELECTRON SYSTEM (eV)
  ---------------------------------------------------
  free  energy   TOTEN  =       -31.929229 eV

  energy  without entropy=      -31.929229  energy(sigma->0) =      -31.929229
 


--------------------------------------------------------------------------------------------------------


    POTLOK:  cpu time    4.10: real time    4.11


--------------------------------------------------------------------------------------------------------




--------------------------------------------------------------------------------------------------------


    WAVPRE:  cpu time    0.33: real time    0.33
    FEWALD:  cpu time    0.00: real time    0.00
    ORTHCH:  cpu time    0.08: real time    0.08
     LOOP+:  cpu time  129.70: real time  130.55


----------------------------------------- Iteration    2(   1)  ---------------------------------------


    POTLOK:  cpu time    3.79: real time    3.79
    SETDIJ:  cpu time    0.08: real time    0.08
     EDDAV:  cpu time    2.04: real time    2.04
       DOS:  cpu time    0.00: real time    0.00
    CHARGE:  cpu time    0.50: real time    0.50
    MIXING:  cpu time    0.09: real time    0.09
    --------------------------------------------
      LOOP:  cpu time    6.50: real time    6.50

 eigenvalue-minimisations  :    44
 total energy-change (2. order) : 0.3870565E-01  (-0.2519848E+00)
 number of electron      11.9999990 magnetization       0.0000432
 augmentation part        0.2619218 magnetization       0.0000469

 Broyden mixing:
  rms(total) = 0.47832E-01    rms(broyden)= 0.47760E-01
  rms(prec ) = 0.57442E-01
  weight for this iteration     100.00

 Free energy of the ion-electron system (eV)
  ---------------------------------------------------
  alpha Z        PSCENC =         0.60581865
  Ewald energy   TEWEN  =       240.53846179
  -1/2 Hartree   DENC   =      -516.59305280
  -exchange  EXHF       =         0.00000000
  -V(xc)+E(xc)   XCENC  =        39.11072918
  PAW double counting   =       158.69124995     -161.33537889
  entropy T*S    EENTRO =         0.00000000
  eigenvalues    EBANDS =      -136.92208632
  atomic energy  EATOM  =       344.01377183
  ---------------------------------------------------
  free energy    TOTEN  =       -31.89048662 eV

  energy without entropy =      -31.89048662  energy(sigma->0) =      -31.89048662


--------------------------------------------------------------------------------------------------------




----------------------------------------- Iteration    2(   2)  ---------------------------------------


    POTLOK:  cpu time    3.92: real time    3.92
    SETDIJ:  cpu time    0.08: real time    0.08
     EDDAV:  cpu time    1.80: real time    1.80
       DOS:  cpu time    0.00: real time    0.00
    CHARGE:  cpu time    0.52: real time    0.52
    MIXING:  cpu time    0.08: real time    0.08
    --------------------------------------------
      LOOP:  cpu time    6.40: real time    6.42

 eigenvalue-minimisations  :    40
 total energy-change (2. order) : 0.1000371E-03  (-0.4329556E-02)
 number of electron      11.9999990 magnetization      -0.0000074
 augmentation part        0.2625576 magnetization      -0.0000152

 Broyden mixing:
  rms(total) = 0.32374E-01    rms(broyden)= 0.32363E-01
  rms(prec ) = 0.38485E-01
  weight for this iteration     100.00

 eigenvalues of (default mixing * dielectric matrix)
  average eigenvalue GAMMA=   2.6337
  2.6337

 Free energy of the ion-electron system (eV)
  ---------------------------------------------------
  alpha Z        PSCENC =         0.60581865
  Ewald energy   TEWEN  =       240.53846179
  -1/2 Hartree   DENC   =      -516.40948684
  -exchange  EXHF       =         0.00000000
  -V(xc)+E(xc)   XCENC  =        39.08850761
  PAW double counting   =       158.35507806     -160.99726873
  entropy T*S    EENTRO =         0.00000000
  eigenvalues    EBANDS =      -137.08526894
  atomic energy  EATOM  =       344.01377183
  ---------------------------------------------------
  free energy    TOTEN  =       -31.89038658 eV

  energy without entropy =      -31.89038658  energy(sigma->0) =      -31.89038658


--------------------------------------------------------------------------------------------------------




----------------------------------------- Iteration    2(   3)  ---------------------------------------


    POTLOK:  cpu time    3.96: real time    3.96
    SETDIJ:  cpu time    0.08: real time    0.08
     EDDAV:  cpu time    1.88: real time    1.88
       DOS:  cpu time    0.00: real time    0.00
    CHARGE:  cpu time    0.52: real time    0.52
    MIXING:  cpu time    0.09: real time    0.09
    --------------------------------------------
      LOOP:  cpu time    6.53: real time    6.55

 eigenvalue-minimisations  :    40
 total energy-change (2. order) : 0.1896739E-02  (-0.1070357E-02)
 number of electron      11.9999990 magnetization       0.0000008
 augmentation part        0.2627464 magnetization      -0.0000082

 Broyden mixing:
  rms(total) = 0.71437E-02    rms(broyden)= 0.71392E-02
  rms(prec ) = 0.95458E-02
  weight for this iteration     100.00

 eigenvalues of (default mixing * dielectric matrix)
  average eigenvalue GAMMA=   1.5857
  0.9487  2.2228

 Free energy of the ion-electron system (eV)
  ---------------------------------------------------
  alpha Z        PSCENC =         0.60581865
  Ewald energy   TEWEN  =       240.53846179
  -1/2 Hartree   DENC   =      -516.22867583
  -exchange  EXHF       =         0.00000000
  -V(xc)+E(xc)   XCENC  =        39.06315962
  PAW double counting   =       157.90469611     -160.54575951
  entropy T*S    EENTRO =         0.00000000
  eigenvalues    EBANDS =      -137.23996250
  atomic energy  EATOM  =       344.01377183
  ---------------------------------------------------
  free energy    TOTEN  =       -31.88848984 eV

  energy without entropy =      -31.88848984  energy(sigma->0) =      -31.88848984


--------------------------------------------------------------------------------------------------------




----------------------------------------- Iteration    2(   4)  ---------------------------------------


    POTLOK:  cpu time    4.16: real time    4.16
    SETDIJ:  cpu time    0.09: real time    0.09
     EDDAV:  cpu time    1.89: real time    1.89
       DOS:  cpu time    0.00: real time    0.00
    CHARGE:  cpu time    0.51: real time    0.51
    MIXING:  cpu time    0.10: real time    0.10
    --------------------------------------------
      LOOP:  cpu time    6.75: real time    6.76

 eigenvalue-minimisations  :    40
 total energy-change (2. order) : 0.9281168E-04  (-0.1746256E-03)
 number of electron      11.9999990 magnetization       0.0000001
 augmentation part        0.2625876 magnetization       0.0000069

 Broyden mixing:
  rms(total) = 0.22303E-02    rms(broyden)= 0.22291E-02
  rms(prec ) = 0.28061E-02
  weight for this iteration     100.00

 eigenvalues of (default mixing * dielectric matrix)
  average eigenvalue GAMMA=   1.4539
  2.2250  1.0684  1.0684

 Free energy of the ion-electron system (eV)
  ---------------------------------------------------
  alpha Z        PSCENC =         0.60581865
  Ewald energy   TEWEN  =       240.53846179
  -1/2 Hartree   DENC   =      -516.21083995
  -exchange  EXHF       =         0.00000000
  -V(xc)+E(xc)   XCENC  =        39.06614942
  PAW double counting   =       157.93312668     -160.57425911
  entropy T*S    EENTRO =         0.00000000
  eigenvalues    EBANDS =      -137.26062633
  atomic energy  EATOM  =       344.01377183
  ---------------------------------------------------
  free energy    TOTEN  =       -31.88839703 eV

  energy without entropy =      -31.88839703  energy(sigma->0) =      -31.88839703


--------------------------------------------------------------------------------------------------------




----------------------------------------- Iteration    2(   5)  ---------------------------------------


    POTLOK:  cpu time    4.13: real time    4.13
    SETDIJ:  cpu time    0.08: real time    0.08
     EDDAV:  cpu time    1.91: real time    1.91
       DOS:  cpu time    0.00: real time    0.00
    --------------------------------------------
      LOOP:  cpu time    6.13: real time    6.14

 eigenvalue-minimisations  :    42
 total energy-change (2. order) :-0.6528695E-06  (-0.9582458E-05)
 number of electron      11.9999990 magnetization       0.0000001
 augmentation part        0.2625876 magnetization       0.0000069

 Free energy of the ion-electron system (eV)
  ---------------------------------------------------
  alpha Z        PSCENC =         0.60581865
  Ewald energy   TEWEN  =       240.53846179
  -1/2 Hartree   DENC   =      -516.19008002
  -exchange  EXHF       =         0.00000000
  -V(xc)+E(xc)   XCENC  =        39.06592715
  PAW double counting   =       157.91235397     -160.55334194
  entropy T*S    EENTRO =         0.00000000
  eigenvalues    EBANDS =      -137.28130911
  atomic energy  EATOM  =       344.01377183
  ---------------------------------------------------
  free energy    TOTEN  =       -31.88839768 eV

  energy without entropy =      -31.88839768  energy(sigma->0) =      -31.88839768


--------------------------------------------------------------------------------------------------------




 average (electrostatic) potential at core
  the test charge radii are     0.5201  0.6991
  (the norm of the test charge is              1.0000)
       1 -41.6614       2 -41.6614       3 -41.6614       4 -41.6614       5 -58.5356
       6 -58.5356
 
 
 
 E-fermi :  -5.7189     XC(G=0):  -0.8693     alpha+bet : -0.3112


 spin component 1

 k-point   1 :       0.0000    0.0000    0.0000
  band No.  band energies     occupation 
      1     -18.7431      1.00000
      2     -13.8583      1.00000
      3     -11.1827      1.00000
      4     -10.0831      1.00000
      5      -8.0690      1.00000
      6      -6.7042      1.00000
      7      -0.7146      0.00000
      8      -0.3976      0.00000
      9       0.6890      0.00000
     10       0.7305      0.00000

 spin component 2

 k-point   1 :       0.0000    0.0000    0.0000
  band No.  band energies     occupation 
      1     -18.7432      1.00000
      2     -13.8585      1.00000
      3     -11.1828      1.00000
      4     -10.0832      1.00000
      5      -8.0693      1.00000
      6      -6.7039      1.00000
      7      -0.7143      0.00000
      8      -0.3942      0.00000
      9       0.6911      0.00000
     10       0.7319      0.00000


--------------------------------------------------------------------------------------------------------


 soft charge-density along one line, spin component           1
         0         1         2         3         4         5         6         7         8         9
 total charge-density along one line
 
 soft charge-density along one line, spin component           2
         0         1         2         3         4         5         6         7         8         9
 total charge-density along one line
 
 pseudopotential strength for first ion, spin component:           1
 -2.344  -0.011   0.001   0.001   0.000
 -0.011   0.049   0.001   0.001   0.000
  0.001   0.001  -0.335   0.002   0.000
  0.001   0.001   0.002  -0.337   0.000
  0.000   0.000   0.000   0.000  -0.338
 pseudopotential strength for first ion, spin component:           2
 -2.344  -0.011   0.001   0.001   0.000
 -0.011   0.049   0.001   0.001   0.000
  0.001   0.001  -0.335   0.002   0.000
  0.001   0.001   0.002  -0.337   0.000
  0.000   0.000   0.000   0.000  -0.338
 total augmentation occupancy for first ion, spin component:           1
  1.698  -0.612  -0.236  -0.150   0.000
 -0.612   0.268   0.096   0.059   0.000
 -0.236   0.096   0.037   0.019   0.000
 -0.150   0.059   0.019   0.019   0.000
  0.000   0.000   0.000   0.000   0.009
 total augmentation occupancy for first ion, spin component:           2
  0.000   0.000   0.000   0.000   0.000
  0.000   0.000   0.000   0.000   0.000
  0.000   0.000   0.000   0.000   0.000
  0.000   0.000   0.000   0.000   0.000
  0.000   0.000   0.000   0.000   0.000


------------------------ aborting loop because EDIFF is reached ----------------------------------------


    CHARGE:  cpu time    0.40: real time    0.40
    FORLOC:  cpu time    0.16: real time    0.16
    FORNL :  cpu time    0.31: real time    0.31
    STRESS:  cpu time    0.75: real time    0.75
    FORHAR:  cpu time    0.47: real time    0.47
    MIXING:  cpu time    0.08: real time    0.08

  FORCE on cell =-STRESS in cart. coord.  units (eV):
  Direction    XX          YY          ZZ          XY          YZ          ZX
  --------------------------------------------------------------------------------------
  Alpha Z     0.60582     0.60582     0.60582
  Ewald    -100.22473    90.81070   249.95237     0.00000     0.00000     0.00000
  Hartree    95.87082   164.64872   255.69252     0.00000     0.00000     0.00000
  E(xc)     -41.97347   -40.92162   -40.73054     0.00000     0.00000     0.00000
  Local    -114.65200  -353.64759  -600.06491     0.00000     0.00000     0.00000
  n-local   -16.97415   -18.68388   -18.48730     0.00000     0.00000     0.00000
  augment    -0.14393    -0.24701    -0.26994     0.00000     0.00000     0.00000
  Kinetic   176.13317   154.67828   153.94374     0.00000     0.00000     0.00000
  Fock        0.00000     0.00000     0.00000     0.00000     0.00000     0.00000
  -------------------------------------------------------------------------------------
  Total      -1.35847    -2.75658     0.64176     0.00000     0.00000     0.00000
  in kB      -2.17652    -4.41653     1.02822     0.00000     0.00000     0.00000
  external pressure =       -1.85 kB  Pullay stress =        0.00 kB


 VOLUME and BASIS-vectors are now :
 -----------------------------------------------------------------------------
  energy-cutoff  :      350.00
  volume of cell :     1000.00
      direct lattice vectors                 reciprocal lattice vectors
    10.000000000  0.000000000  0.000000000     0.100000000  0.000000000  0.000000000
     0.000000000 10.000000000  0.000000000     0.000000000  0.100000000  0.000000000
     0.000000000  0.000000000 10.000000000     0.000000000  0.000000000  0.100000000

  length of vectors
    10.000000000 10.000000000 10.000000000     0.100000000  0.100000000  0.100000000


 FORCES acting on ions
    electron-ion (+dipol)            ewald-force                    non-local-force                 convergence-correction
 -----------------------------------------------------------------------------------------------
   0.235E-13 -.453E+02 -.366E+02   -.179E-18 0.495E+02 0.392E+02   -.485E-26 -.455E+01 -.289E+01   -.778E-14 0.150E-02 -.947E-04
   0.242E-13 0.453E+02 -.366E+02   -.380E-18 -.495E+02 0.392E+02   -.646E-26 0.455E+01 -.289E+01   -.696E-14 -.150E-02 -.947E-04
   0.239E-13 -.453E+02 0.366E+02   0.882E-17 0.495E+02 -.392E+02   0.646E-26 -.455E+01 0.289E+01   -.824E-14 0.150E-02 0.947E-04
   0.223E-13 0.453E+02 0.366E+02   0.873E-17 -.495E+02 -.392E+02   0.485E-26 0.455E+01 0.289E+01   -.761E-14 -.150E-02 0.947E-04
   0.116E-12 0.277E-12 -.105E+03   0.316E-16 -.979E-14 0.107E+03   0.517E-25 0.000E+00 0.318E+00   -.473E-13 -.841E-13 -.511E-02
   0.117E-12 -.233E-12 0.105E+03   -.464E-16 -.969E-14 -.107E+03   -.517E-25 0.000E+00 -.318E+00   -.508E-13 -.396E-13 0.511E-02
 -----------------------------------------------------------------------------------------------
   0.327E-12 0.406E-12 0.469E-12   0.221E-17 -.527E-14 0.142E-13   0.000E+00 0.000E+00 0.000E+00   -.129E-12 -.146E-12 0.120E-12
 
 
 POSITION                                       TOTAL-FORCE (eV/Angst)
 -----------------------------------------------------------------------------------
      5.00000      5.93646      6.24563         0.000000     -0.354254     -0.266906
      5.00000      4.06354      6.24563         0.000000      0.354254     -0.266906
      5.00000      5.93646      3.75437         0.000000     -0.354254      0.266906
      5.00000      4.06354      3.75437         0.000000      0.354254      0.266906
      5.00000      5.00000      5.65040         0.000000      0.000000      2.548196
      5.00000      5.00000      4.34960         0.000000      0.000000     -2.548196
 -----------------------------------------------------------------------------------
    total drift:                                0.000000      0.000000      0.000000


[...]


    CHARGE:  cpu time    0.42: real time    0.42
    FORLOC:  cpu time    0.16: real time    0.16
    FORNL :  cpu time    0.32: real time    0.32
    STRESS:  cpu time    0.90: real time    0.90
    FORHAR:  cpu time    0.56: real time    0.56
    MIXING:  cpu time    0.09: real time    0.09

  FORCE on cell =-STRESS in cart. coord.  units (eV):
  Direction    XX          YY          ZZ          XY          YZ          ZX
  --------------------------------------------------------------------------------------
  Alpha Z     0.60582     0.60582     0.60582
  Ewald    -100.25240    94.76925   242.50105     0.00000     0.00000     0.00000
  Hartree    94.78687   163.27290   254.89133     0.00000     0.00000     0.00000
  E(xc)     -41.90041   -40.84209   -40.69098     0.00000     0.00000     0.00000
  Local    -113.00130  -354.57045  -594.25070     0.00000     0.00000     0.00000
  n-local   -16.90410   -18.84465   -18.46508     0.00000     0.00000     0.00000
  augment    -0.12633    -0.23613    -0.22568     0.00000     0.00000     0.00000
  Kinetic   175.47179   154.07773   153.82933     0.00000     0.00000     0.00000
  Fock        0.00000     0.00000     0.00000     0.00000     0.00000     0.00000
  -------------------------------------------------------------------------------------
  Total      -1.32006    -1.76761    -1.80493     0.00000     0.00000     0.00000
  in kB      -2.11498    -2.83203    -2.89182     0.00000     0.00000     0.00000
  external pressure =       -2.61 kB  Pullay stress =        0.00 kB


 VOLUME and BASIS-vectors are now :
 -----------------------------------------------------------------------------
  energy-cutoff  :      350.00
  volume of cell :     1000.00
      direct lattice vectors                 reciprocal lattice vectors
    10.000000000  0.000000000  0.000000000     0.100000000  0.000000000  0.000000000
     0.000000000 10.000000000  0.000000000     0.000000000  0.100000000  0.000000000
     0.000000000  0.000000000 10.000000000     0.000000000  0.000000000  0.100000000

  length of vectors
    10.000000000 10.000000000 10.000000000     0.100000000  0.100000000  0.100000000


 FORCES acting on ions
    electron-ion (+dipol)            ewald-force                    non-local-force                 convergence-correction
 -----------------------------------------------------------------------------------------------
   0.237E-13 -.460E+02 -.361E+02   -.837E-17 0.507E+02 0.390E+02   -.162E-26 -.476E+01 -.291E+01   -.698E-14 0.872E-02 0.745E-02
   0.250E-13 0.460E+02 -.361E+02   -.780E-17 -.507E+02 0.390E+02   0.606E-27 0.476E+01 -.291E+01   -.700E-14 -.872E-02 0.745E-02
   0.238E-13 -.460E+02 0.361E+02   0.704E-17 0.507E+02 -.390E+02   -.808E-27 -.476E+01 0.291E+01   -.103E-13 0.872E-02 -.745E-02
   0.237E-13 0.460E+02 0.361E+02   -.361E-17 -.507E+02 -.390E+02   -.162E-26 0.476E+01 0.291E+01   -.103E-13 -.872E-02 -.745E-02
   0.114E-12 -.236E-12 -.987E+02   0.313E-17 0.180E-14 0.991E+02   0.000E+00 0.000E+00 -.678E+00   -.481E-13 0.336E-14 0.420E-01
   0.116E-12 0.405E-12 0.987E+02   0.118E-16 0.245E-14 -.991E+02   0.000E+00 0.000E+00 0.678E+00   -.605E-13 -.850E-13 -.420E-01
 -----------------------------------------------------------------------------------------------
   0.326E-12 -.800E-13 -.711E-13   0.221E-17 0.425E-14 0.000E+00   -.343E-26 0.000E+00 0.000E+00   -.143E-12 -.964E-13 0.647E-13
 
 
 POSITION                                       TOTAL-FORCE (eV/Angst)
 -----------------------------------------------------------------------------------
      5.00000      5.93513      6.24435         0.000000     -0.100459     -0.045859
      5.00000      4.06487      6.24435         0.000000      0.100459     -0.045859
      5.00000      5.93513      3.75565         0.000000     -0.100459      0.045859
      5.00000      4.06487      3.75565         0.000000      0.100459      0.045859
      5.00000      5.00000      5.66976         0.000000      0.000000     -0.230755
      5.00000      5.00000      4.33024         0.000000      0.000000      0.230755
 -----------------------------------------------------------------------------------
    total drift:                                0.000000      0.000000      0.000000


--------------------------------------------------------------------------------------------------------



  FREE ENERGIE OF THE ION-ELECTRON SYSTEM (eV)
  ---------------------------------------------------
  free  energy   TOTEN  =       -31.933972 eV

  energy  without entropy=      -31.933972  energy(sigma->0) =      -31.933972
 
 d Force = 0.1042082E-02[-0.742E-02, 0.951E-02]  d Energy = 0.1071441E-02-0.294E-04
 d Force = 0.3872064E+01[ 0.384E+01, 0.390E+01]  d Ewald  = 0.3871976E+01 0.885E-04


--------------------------------------------------------------------------------------------------------


    POTLOK:  cpu time    3.81: real time    3.81


--------------------------------------------------------------------------------------------------------


 Conjugate gradient step on ions:
 trial-energy change:   -0.001071  1 .order   -0.001042   -0.009507    0.007422
  (g-gl).g = 0.108E-01      g.g   = 0.111E-01  gl.gl    = 0.327E-01
 g(Force)  = 0.111E-01   g(Stress)= 0.000E+00 ortho     = 0.368E-03
 gamma     =   0.32924
 trial     =   0.84434
 opt step  =   0.47414  (harmonic =   0.47414) maximal distance =0.00520735
 next E    =   -31.935570   (d E  =  -0.00267)


--------------------------------------------------------------------------------------------------------


    WAVPRE:  cpu time    0.33: real time    0.33
    FEWALD:  cpu time    0.00: real time    0.00
    ORTHCH:  cpu time    0.08: real time    0.08
     LOOP+:  cpu time   31.72: real time   31.99


----------------------------------------- Iteration    5(   1)  ---------------------------------------


    POTLOK:  cpu time    4.07: real time    4.07
    SETDIJ:  cpu time    0.09: real time    0.09
     EDDAV:  cpu time    1.80: real time    1.80
       DOS:  cpu time    0.00: real time    0.00
    CHARGE:  cpu time    0.51: real time    0.51
    MIXING:  cpu time    0.08: real time    0.08
    --------------------------------------------
      LOOP:  cpu time    6.54: real time    6.54

 eigenvalue-minimisations  :    40
 total energy-change (2. order) :-0.1854313E-02  (-0.6522965E-02)
 number of electron      12.0000005 magnetization       0.0000000
 augmentation part        0.2620913 magnetization      -0.0000004

 Broyden mixing:
  rms(total) = 0.10435E-01    rms(broyden)= 0.10428E-01
  rms(prec ) = 0.14085E-01
  weight for this iteration     100.00

 Free energy of the ion-electron system (eV)
  ---------------------------------------------------
  alpha Z        PSCENC =         0.60581865
  Ewald energy   TEWEN  =       238.70891052
  -1/2 Hartree   DENC   =      -513.94889681
  -exchange  EXHF       =         0.00000000
  -V(xc)+E(xc)   XCENC  =        39.03660104
  PAW double counting   =       155.38255226     -158.01198001
  entropy T*S    EENTRO =         0.00000000
  eigenvalues    EBANDS =      -137.72267677
  atomic energy  EATOM  =       344.01377183
  ---------------------------------------------------
  free energy    TOTEN  =       -31.93589929 eV

  energy without entropy =      -31.93589929  energy(sigma->0) =      -31.93589929


--------------------------------------------------------------------------------------------------------




----------------------------------------- Iteration    5(   2)  ---------------------------------------


    POTLOK:  cpu time    4.07: real time    4.07
    SETDIJ:  cpu time    0.08: real time    0.08
     EDDAV:  cpu time    2.44: real time    2.45
       DOS:  cpu time    0.00: real time    0.00
    CHARGE:  cpu time    0.51: real time    0.51
    MIXING:  cpu time    0.09: real time    0.09
    --------------------------------------------
      LOOP:  cpu time    7.20: real time    7.86

 eigenvalue-minimisations  :    60
 total energy-change (2. order) : 0.3108634E-03  (-0.8892544E-04)
 number of electron      12.0000005 magnetization       0.0000000
 augmentation part        0.2620451 magnetization       0.0000004

 Broyden mixing:
  rms(total) = 0.52083E-02    rms(broyden)= 0.52072E-02
  rms(prec ) = 0.68544E-02
  weight for this iteration     100.00

 eigenvalues of (default mixing * dielectric matrix)
  average eigenvalue GAMMA=   1.9213
  1.9213

 Free energy of the ion-electron system (eV)
  ---------------------------------------------------
  alpha Z        PSCENC =         0.60581865
  Ewald energy   TEWEN  =       238.70891052
  -1/2 Hartree   DENC   =      -514.20128865
  -exchange  EXHF       =         0.00000000
  -V(xc)+E(xc)   XCENC  =        39.04948457
  PAW double counting   =       156.05630048     -158.68927173
  entropy T*S    EENTRO =         0.00000000
  eigenvalues    EBANDS =      -137.47931409
  atomic energy  EATOM  =       344.01377183
  ---------------------------------------------------
  free energy    TOTEN  =       -31.93558842 eV

  energy without entropy =      -31.93558842  energy(sigma->0) =      -31.93558842


--------------------------------------------------------------------------------------------------------




----------------------------------------- Iteration    5(   3)  ---------------------------------------


    POTLOK:  cpu time    4.11: real time    4.11
    SETDIJ:  cpu time    0.08: real time    0.08
     EDDAV:  cpu time    1.91: real time    1.91
       DOS:  cpu time    0.00: real time    0.00
    --------------------------------------------
      LOOP:  cpu time    6.10: real time    6.12

 eigenvalue-minimisations  :    44
 total energy-change (2. order) : 0.3156066E-04  (-0.8793230E-04)
 number of electron      12.0000005 magnetization       0.0000000
 augmentation part        0.2620451 magnetization       0.0000004

 Free energy of the ion-electron system (eV)
  ---------------------------------------------------
  alpha Z        PSCENC =         0.60581865
  Ewald energy   TEWEN  =       238.70891052
  -1/2 Hartree   DENC   =      -514.42384475
  -exchange  EXHF       =         0.00000000
  -V(xc)+E(xc)   XCENC  =        39.06084916
  PAW double counting   =       156.69537426     -159.33177265
  entropy T*S    EENTRO =         0.00000000
  eigenvalues    EBANDS =      -137.26466388
  atomic energy  EATOM  =       344.01377183
  ---------------------------------------------------
  free energy    TOTEN  =       -31.93555686 eV

  energy without entropy =      -31.93555686  energy(sigma->0) =      -31.93555686


--------------------------------------------------------------------------------------------------------




 average (electrostatic) potential at core
  the test charge radii are     0.5201  0.6991
  (the norm of the test charge is              1.0000)
       1 -41.7963       2 -41.7963       3 -41.7963       4 -41.7963       5 -58.5284
       6 -58.5284
 
 
 
 E-fermi :  -5.5944     XC(G=0):  -0.9104     alpha+bet : -0.3112


 spin component 1

 k-point   1 :       0.0000    0.0000    0.0000
  band No.  band energies     occupation 
      1     -18.5962      1.00000
      2     -14.0073      1.00000
      3     -11.2213      1.00000
      4      -9.9653      1.00000
      5      -8.2791      1.00000
      6      -6.5632      1.00000
      7      -0.8852      0.00000
      8      -0.4349      0.00000
      9       0.7104      0.00000
     10       0.7222      0.00000

 spin component 2

 k-point   1 :       0.0000    0.0000    0.0000
  band No.  band energies     occupation 
      1     -18.5962      1.00000
      2     -14.0073      1.00000
      3     -11.2212      1.00000
      4      -9.9653      1.00000
      5      -8.2791      1.00000
      6      -6.5631      1.00000
      7      -0.8852      0.00000
      8      -0.4346      0.00000
      9       0.7105      0.00000
     10       0.7224      0.00000


--------------------------------------------------------------------------------------------------------


 soft charge-density along one line, spin component           1
         0         1         2         3         4         5         6         7         8         9
 total charge-density along one line
 
 soft charge-density along one line, spin component           2
         0         1         2         3         4         5         6         7         8         9
 total charge-density along one line
 
 pseudopotential strength for first ion, spin component:           1
 -2.345  -0.011   0.002   0.001   0.000
 -0.011   0.049   0.002   0.001   0.000
  0.002   0.002  -0.334   0.002   0.000
  0.001   0.001   0.002  -0.336   0.000
  0.000   0.000   0.000   0.000  -0.338
 pseudopotential strength for first ion, spin component:           2
 -2.345  -0.011   0.002   0.001   0.000
 -0.011   0.049   0.002   0.001   0.000
  0.002   0.002  -0.334   0.002   0.000
  0.001   0.001   0.002  -0.336   0.000
  0.000   0.000   0.000   0.000  -0.338
 total augmentation occupancy for first ion, spin component:           1
  1.728  -0.623  -0.250  -0.154   0.000
 -0.623   0.272   0.101   0.061   0.000
 -0.250   0.101   0.040   0.020   0.000
 -0.154   0.061   0.020   0.019   0.000
  0.000   0.000   0.000   0.000   0.009
 total augmentation occupancy for first ion, spin component:           2
  0.000   0.000   0.000   0.000   0.000
  0.000   0.000   0.000   0.000   0.000
  0.000   0.000   0.000   0.000   0.000
  0.000   0.000   0.000   0.000   0.000
  0.000   0.000   0.000   0.000   0.000


------------------------ aborting loop because EDIFF is reached ----------------------------------------


    CHARGE:  cpu time    0.50: real time    0.51
    FORLOC:  cpu time    0.17: real time    0.17
    FORNL :  cpu time    0.39: real time    0.39
    STRESS:  cpu time    0.97: real time    0.97
    FORHAR:  cpu time    0.58: real time    0.58
    MIXING:  cpu time    0.09: real time    0.09

  FORCE on cell =-STRESS in cart. coord.  units (eV):
  Direction    XX          YY          ZZ          XY          YZ          ZX
  --------------------------------------------------------------------------------------
  Alpha Z     0.60582     0.60582     0.60582
  Ewald    -100.24041    94.82223   244.12697     0.00000     0.00000     0.00000
  Hartree    95.21204   163.60351   255.42693     0.00000     0.00000     0.00000
  E(xc)     -41.96954   -40.91417   -40.75445     0.00000     0.00000     0.00000
  Local    -113.63838  -354.95304  -596.04272     0.00000     0.00000     0.00000
  n-local   -16.99524   -18.95444   -18.57654     0.00000     0.00000     0.00000
  augment    -0.12787    -0.24086    -0.23242     0.00000     0.00000     0.00000
  Kinetic   175.72381   154.50331   154.11295     0.00000     0.00000     0.00000
  Fock        0.00000     0.00000     0.00000     0.00000     0.00000     0.00000
  -------------------------------------------------------------------------------------
  Total      -1.42978    -1.52764    -1.33346     0.00000     0.00000     0.00000
  in kB      -2.29076    -2.44756    -2.13643     0.00000     0.00000     0.00000
  external pressure =       -2.29 kB  Pullay stress =        0.00 kB


 VOLUME and BASIS-vectors are now :
 -----------------------------------------------------------------------------
  energy-cutoff  :      350.00
  volume of cell :     1000.00
      direct lattice vectors                 reciprocal lattice vectors
    10.000000000  0.000000000  0.000000000     0.100000000  0.000000000  0.000000000
     0.000000000 10.000000000  0.000000000     0.000000000  0.100000000  0.000000000
     0.000000000  0.000000000 10.000000000     0.000000000  0.000000000  0.100000000

  length of vectors
    10.000000000 10.000000000 10.000000000     0.100000000  0.100000000  0.100000000


 FORCES acting on ions
    electron-ion (+dipol)            ewald-force                    non-local-force                 convergence-correction
 -----------------------------------------------------------------------------------------------
   0.243E-13 -.461E+02 -.364E+02   -.287E-17 0.509E+02 0.393E+02   -.404E-27 -.479E+01 -.295E+01   -.526E-14 -.829E-02 -.814E-02
   0.235E-13 0.461E+02 -.364E+02   -.127E-16 -.509E+02 0.393E+02   0.202E-27 0.479E+01 -.295E+01   -.610E-14 0.829E-02 -.814E-02
   0.231E-13 -.461E+02 0.364E+02   0.124E-16 0.509E+02 -.393E+02   0.000E+00 -.479E+01 0.295E+01   -.969E-14 -.829E-02 0.814E-02
   0.238E-13 0.461E+02 0.364E+02   0.285E-17 -.509E+02 -.393E+02   0.505E-28 0.479E+01 0.295E+01   -.106E-13 0.829E-02 0.814E-02
   0.119E-12 0.924E-13 -.991E+02   -.404E-17 0.216E-15 0.998E+02   0.000E+00 0.000E+00 -.569E+00   -.424E-13 0.706E-13 -.415E-01
   0.118E-12 -.476E-12 0.991E+02   0.650E-17 -.272E-15 -.998E+02   0.000E+00 0.000E+00 0.569E+00   -.584E-13 0.287E-13 0.415E-01
 -----------------------------------------------------------------------------------------------
   0.332E-12 -.881E-12 0.355E-12   0.221E-17 -.561E-16 0.142E-13   -.151E-27 -.888E-15 -.444E-15   -.132E-12 0.119E-12 -.334E-12
 
 
 POSITION                                       TOTAL-FORCE (eV/Angst)
 -----------------------------------------------------------------------------------
      5.00000      5.93106      6.24220         0.000000      0.008557      0.008661
      5.00000      4.06894      6.24220         0.000000     -0.008557      0.008661
      5.00000      5.93106      3.75780         0.000000      0.008557     -0.008661
      5.00000      4.06894      3.75780         0.000000     -0.008557     -0.008661
      5.00000      5.00000      5.66710         0.000000      0.000000      0.007833
      5.00000      5.00000      4.33290         0.000000      0.000000     -0.007833
 -----------------------------------------------------------------------------------
    total drift:                                0.000000      0.000000      0.000000


--------------------------------------------------------------------------------------------------------



  FREE ENERGIE OF THE ION-ELECTRON SYSTEM (eV)
  ---------------------------------------------------
  free  energy   TOTEN  =       -31.935557 eV

  energy  without entropy=      -31.935557  energy(sigma->0) =      -31.935557
 
 d Force = 0.1499575E-02[-0.255E-03, 0.325E-02]  d Energy = 0.1584861E-02-0.853E-04
 d Force =-0.1690912E+01[-0.170E+01,-0.169E+01]  d Ewald  =-0.1690905E+01-0.768E-05


--------------------------------------------------------------------------------------------------------


    POTLOK:  cpu time    4.13: real time    4.13


--------------------------------------------------------------------------------------------------------




--------------------------------------------------------------------------------------------------------


  
 reached required accuracy - stopping structural energy minimisation
 writing wavefunctions
     LOOP+:  cpu time   26.79: real time   29.06
    4ORBIT:  cpu time    0.00: real time    0.00

 total amount of memory used by VASP on root node   149710. kBytes
========================================================================

   base      :      30000. kBytes
   nonl-proj :       3314. kBytes
   fftplans  :      30736. kBytes
   grid      :      80879. kBytes
   one-center:         36. kBytes
   wavefun   :       4745. kBytes
 
  
  
 General timing and accounting informations for this job:
 ========================================================
  
                  Total CPU time used (sec):      269.480
                            User time (sec):      266.878
                          System time (sec):        2.602
                         Elapsed time (sec):      273.594
  
                   Maximum memory used (kb):           0.
                   Average memory used (kb):           0.
  
                          Minor page faults:       772775
                          Major page faults:            0
                 Voluntary context switches:         3436
