<?xml version="1.0" encoding="ISO-8859-1"?>
<modeling>
 <generator>
  <i name="program" type="string">vasp </i>
  <i name="version" type="string">5.2.12  </i>
  <i name="subversion" type="string">11Nov11 complex                                                      parallel </i>
  <i name="platform" type="string">LinuxIFC </i>
  <i name="date" type="string">2012 11 01 </i>
  <i name="time" type="string">16:39:45 </i>
 </generator>
 <incar>
  <i type="string" name="PREC">normal</i>
  <i type="int" name="ISPIN">     2</i>
  <i type="int" name="IBRION">     2</i>
  <i type="int" name="NSW">    10</i>
  <i name="ENCUT">    350.00000000</i>
  <i type="int" name="NBANDS">    10</i>
  <i type="int" name="ISMEAR">     0</i>
 </incar>
 <kpoints>
  <generation param="Monkhorst-Pack">
   <v type="int" name="divisions">       1        1        1 </v>
   <v name="usershift">      0.00000000       0.00000000       0.00000000 </v>
   <v name="genvec1">      1.00000000       0.00000000       0.00000000 </v>
   <v name="genvec2">      0.00000000       1.00000000       0.00000000 </v>
   <v name="genvec3">      0.00000000       0.00000000       1.00000000 </v>
   <v name="shift">      0.00000000       0.00000000       0.00000000 </v>
  </generation>
  <varray name="kpointlist" >
   <v>       0.00000000       0.00000000       0.00000000 </v>
  </varray>
  <varray name="weights" >
   <v>       1.00000000 </v>
  </varray>
 </kpoints>
 <parameters>
  <separator name="general" >
   <i type="string" name="SYSTEM">unknown system</i>
   <i type="logical" name="LCOMPAT"> F  </i>
  </separator>
  <separator name="electronic" >
   <i type="string" name="PREC">normal</i>
   <i name="ENMAX">    350.00000000</i>
   <i name="ENAUG">    644.87300000</i>
   <i name="EDIFF">      0.00010000</i>
   <i type="int" name="IALGO">    38</i>
   <i type="int" name="IWAVPR">    11</i>
   <i type="int" name="NBANDS">    10</i>
   <i name="NELECT">     12.00000000</i>
   <i type="int" name="TURBO">     0</i>
   <i type="int" name="IRESTART">     0</i>
   <i type="int" name="NREBOOT">     0</i>
   <i type="int" name="NMIN">     0</i>
   <i name="EREF">      0.00000000</i>
   <separator name="electronic smearing" >
    <i type="int" name="ISMEAR">     0</i>
    <i name="SIGMA">      0.20000000</i>
    <i name="KSPACING">      0.50000000</i>
    <i type="logical" name="KGAMMA"> T  </i>
   </separator>
   <separator name="electronic projectors" >
    <i type="logical" name="LREAL"> F  </i>
    <v name="ROPT">      0.00000000      0.00000000</v>
    <i type="int" name="LMAXPAW">  -100</i>
    <i type="int" name="LMAXMIX">     2</i>
    <i type="logical" name="NLSPLINE"> F  </i>
   </separator>
   <separator name="electronic startup" >
    <i type="int" name="ISTART">     0</i>
    <i type="int" name="ICHARG">     2</i>
    <i type="int" name="INIWAV">     1</i>
   </separator>
   <separator name="electronic spin" >
    <i type="int" name="ISPIN">     2</i>
    <i type="logical" name="LNONCOLLINEAR"> F  </i>
    <v name="MAGMOM">      1.00000000      1.00000000      1.00000000      1.00000000      1.00000000      1.00000000</v>
    <i name="NUPDOWN">     -1.00000000</i>
    <i type="logical" name="LSORBIT"> F  </i>
    <v name="SAXIS">      0.00000000      0.00000000      1.00000000</v>
    <i type="logical" name="LSPIRAL"> F  </i>
    <v name="QSPIRAL">      0.00000000      0.00000000      0.00000000</v>
    <i type="logical" name="LZEROZ"> F  </i>
   </separator>
   <separator name="electronic exchange-correlation" >
    <i type="logical" name="LASPH"> F  </i>
    <i type="logical" name="LMETAGGA"> F  </i>
   </separator>
   <separator name="electronic convergence" >
    <i type="int" name="NELM">    60</i>
    <i type="int" name="NELMDL">    -5</i>
    <i type="int" name="NELMIN">     2</i>
    <i name="ENINI">    350.00000000</i>
    <separator name="electronic convergence detail" >
     <i type="logical" name="LDIAG"> T  </i>
     <i type="logical" name="LSUBROT"> T  </i>
     <i name="WEIMIN">      0.00100000</i>
     <i name="EBREAK">      0.00000250</i>
     <i name="DEPER">      0.30000000</i>
     <i type="int" name="NRMM">     4</i>
     <i name="TIME">      0.40000000</i>
    </separator>
   </separator>
   <separator name="electronic mixer" >
    <i name="AMIX">      0.40000000</i>
    <i name="BMIX">      1.00000000</i>
    <i name="AMIN">      0.10000000</i>
    <i name="AMIX_MAG">      1.60000000</i>
    <i name="BMIX_MAG">      1.00000000</i>
    <separator name="electronic mixer details" >
     <i type="int" name="IMIX">     4</i>
     <i type="int" name="MAXMIX">   -45</i>
     <i name="WC">    100.00000000</i>
     <i type="int" name="INIMIX">     1</i>
     <i type="int" name="MIXPRE">     1</i>
     <i type="int" name="MREMOVE">     5</i>
    </separator>
   </separator>
   <separator name="electronic dipolcorrection" >
    <i type="logical" name="LDIPOL"> F  </i>
    <i type="logical" name="LMONO"> F  </i>
    <i type="int" name="IDIPOL">     0</i>
    <i name="EPSILON">      1.00000000</i>
    <v name="DIPOL">   -100.00000000   -100.00000000   -100.00000000</v>
    <i name="EFIELD">      0.00000000</i>
   </separator>
  </separator>
  <separator name="grids" >
   <i type="int" name="NGX">    48</i>
   <i type="int" name="NGY">    48</i>
   <i type="int" name="NGZ">    48</i>
   <i type="int" name="NGXF">    96</i>
   <i type="int" name="NGYF">    96</i>
   <i type="int" name="NGZF">    96</i>
   <i type="logical" name="ADDGRID"> F  </i>
  </separator>
  <separator name="ionic" >
   <i type="int" name="NSW">    10</i>
   <i type="int" name="IBRION">     2</i>
   <i type="int" name="ISIF">     2</i>
   <i name="PSTRESS">      0.00000000</i>
   <i name="EDIFFG">      0.00100000</i>
   <i type="int" name="NFREE">     1</i>
   <i name="POTIM">      0.50000000</i>
   <i name="SMASS">     -3.00000000</i>
   <i name="SCALEE">      1.00000000</i>
  </separator>
  <separator name="ionic md" >
   <i name="TEBEG">      0.00010000</i>
   <i name="TEEND">      0.00010000</i>
   <i type="int" name="NBLOCK">     1</i>
   <i type="int" name="KBLOCK">    10</i>
   <i type="int" name="NPACO">   256</i>
   <i name="APACO">     16.00000000</i>
  </separator>
  <separator name="symmetry" >
   <i type="int" name="ISYM">     2</i>
   <i name="SYMPREC">      0.00001000</i>
  </separator>
  <separator name="dos" >
   <i type="logical" name="LORBIT"> F  </i>
   <v name="RWIGS">     -1.00000000     -1.00000000</v>
   <i type="int" name="NEDOS">   301</i>
   <i name="EMIN">     10.00000000</i>
   <i name="EMAX">    -10.00000000</i>
   <i name="EFERMI">      0.00000000</i>
  </separator>
  <separator name="writing" >
   <i type="int" name="NWRITE">     2</i>
   <i type="logical" name="LWAVE"> T  </i>
   <i type="logical" name="LCHARG"> T  </i>
   <i type="logical" name="LPARD"> F  </i>
   <i type="logical" name="LVTOT"> F  </i>
   <i type="logical" name="LVHAR"> F  </i>
   <i type="logical" name="LELF"> F  </i>
   <i type="logical" name="LOPTICS"> F  </i>
   <v name="STM">      0.00000000      0.00000000      0.00000000      0.00000000      0.00000000      0.00000000      0.00000000</v>
  </separator>
  <separator name="performance" >
   <i type="int" name="NPAR">     1</i>
   <i type="int" name="NSIM">     4</i>
   <i type="int" name="NBLK">    -1</i>
   <i type="logical" name="LPLANE"> T  </i>
   <i type="logical" name="LSCALAPACK"> F  </i>
   <i type="logical" name="LSCAAWARE"> F  </i>
   <i type="logical" name="LSCALU"> F  </i>
   <i type="logical" name="LASYNC"> F  </i>
   <i type="logical" name="LORBITALREAL"> F  </i>
  </separator>
  <separator name="miscellaneous" >
   <i type="int" name="IDIOT">     3</i>
   <i type="logical" name="LMUSIC"> F  </i>
   <v name="POMASS">      1.00000000     12.01100000</v>
   <v name="DARWINR">      0.00000000      0.00000000</v>
   <v name="DARWINV">      1.00000000      1.00000000</v>
   <i type="logical" name="LCORR"> T  </i>
  </separator>
  <i type="logical" name="GGA_COMPAT"> T  </i>
  <i type="logical" name="LBERRY"> F  </i>
  <i type="int" name="ICORELEVEL">     0</i>
  <i type="logical" name="LDAU"> F  </i>
  <i type="int" name="I_CONSTRAINED_M">     0</i>
  <separator name="electronic exchange-correlation" >
   <i type="string" name="GGA">--</i>
   <i type="int" name="VOSKOWN">     0</i>
   <i type="logical" name="LHFCALC"> F  </i>
   <i type="string" name="PRECFOCK"></i>
   <i type="logical" name="LHFONE"> F  </i>
   <i type="logical" name="LRHFCALC"> F  </i>
   <i type="logical" name="LTHOMAS"> F  </i>
   <i type="logical" name="LMODELHF"> F  </i>
   <i name="ENCUT4O">     -1.00000000</i>
   <i type="int" name="EXXOEP">     0</i>
   <i type="int" name="FOURORBIT">     0</i>
   <i name="AEXX">      0.00000000</i>
   <i name="HFALPHA">      0.00000000</i>
   <i name="ALDAX">      1.00000000</i>
   <i name="AGGAX">      1.00000000</i>
   <i name="ALDAC">      1.00000000</i>
   <i name="AGGAC">      1.00000000</i>
   <i type="int" name="NKREDX">     1</i>
   <i type="int" name="NKREDY">     1</i>
   <i type="int" name="NKREDZ">     1</i>
   <i type="logical" name="SHIFTRED"> F  </i>
   <i type="logical" name="ODDONLY"> F  </i>
   <i type="logical" name="EVENONLY"> F  </i>
   <i type="int" name="LMAXFOCK">     0</i>
   <i type="int" name="NMAXFOCKAE">     0</i>
   <i type="logical" name="LFOCKAEDFT"> F  </i>
   <i name="HFSCREEN">      0.00000000</i>
   <i name="HFSCREENC">      0.00000000</i>
  </separator>
  <separator name="vdW DFT" >
   <i type="logical" name="LUSE_VDW"> F  </i>
   <i name="Zab_VDW">     -0.84910000</i>
   <i name="PARAM1">      0.12340000</i>
   <i name="PARAM2">      1.00000000</i>
   <i name="PARAM3">      0.00000000</i>
  </separator>
  <separator name="model GW" >
   <i type="int" name="MODEL_GW">     0</i>
   <i name="MODEL_EPS0">    100.00000000</i>
   <i name="MODEL_ALPHA">      1.00000000</i>
  </separator>
  <separator name="linear response parameters" >
   <i type="logical" name="LEPSILON"> F  </i>
   <i type="logical" name="LRPA"> F  </i>
   <i type="logical" name="LNABLA"> F  </i>
   <i type="logical" name="LVEL"> F  </i>
   <i type="int" name="KINTER">     0</i>
   <i name="CSHIFT">      0.10000000</i>
   <i name="OMEGAMAX">     -1.00000000</i>
  </separator>
  <separator name="orbital magnetization" >
   <i type="logical" name="NUCIND"> F  </i>
   <v name="MAGPOS">      0.00000000      0.00000000      0.00000000</v>
   <i type="logical" name="LNICSALL"> T  </i>
   <i type="logical" name="ORBITALMAG"> F  </i>
   <i type="logical" name="LMAGBLOCH"> F  </i>
   <i type="logical" name="LCHIMAG"> F  </i>
   <i type="logical" name="LGAUGE"> T  </i>
   <i type="int" name="MAGATOM">     0</i>
   <v name="MAGDIPOL">      0.00000000      0.00000000      0.00000000</v>
   <v name="AVECCONST">      0.00000000      0.00000000      0.00000000</v>
  </separator>
  <separator name="response functions" >
   <i type="logical" name="LADDER"> F  </i>
   <i type="logical" name="LHARTREE"> T  </i>
   <i type="int" name="IBSE">     0</i>
   <i type="logical" name="LTCTE"> F  </i>
   <i type="logical" name="LTETE"> F  </i>
   <i type="logical" name="LFXCEPS"> F  </i>
   <i type="logical" name="L2ORDER"> F  </i>
   <i type="logical" name="LUSEW"> F  </i>
   <i name="ENCUTGW">     -2.00000000</i>
   <i name="ENCUTGWSOFT">     -2.00000000</i>
   <i name="ENCUTLF">     -1.00000000</i>
   <i type="int" name="LMAXMP2">    -1</i>
   <i name="SCISSOR">      0.00000000</i>
   <i type="int" name="NOMEGA">     0</i>
   <i type="int" name="NOMEGAR">     0</i>
   <i type="int" name="NBANDSGW">    -1</i>
   <i type="int" name="NBANDSO">    -1</i>
   <i type="int" name="NBANDSV">    -1</i>
   <i name="OPTEMAX">      0.00000000</i>
   <i type="int" name="NELM">     1</i>
   <i type="int" name="DIM">     3</i>
   <i type="int" name="ANTIRES">     0</i>
   <i name="OMEGAMAX">    -30.00000000</i>
   <i name="OMEGATL">   -200.00000000</i>
   <i type="int" name="OMEGAGRID">     0</i>
   <i name="CSHIFT">     -0.10000000</i>
   <i type="logical" name="SELFENERGY"> F  </i>
   <i type="logical" name="LSPECTRAL"> F  </i>
   <i type="logical" name="ODDONLYGW"> F  </i>
   <i type="logical" name="EVENONLYGW"> F  </i>
   <i type="int" name="NKREDLFX">     1</i>
   <i type="int" name="NKREDLFY">     1</i>
   <i type="int" name="NKREDLFZ">     1</i>
   <i type="int" name="MAXMEM">  1800</i>
   <i type="int" name="TELESCOPE">     0</i>
  </separator>
 </parameters>
 <atominfo>
  <atoms>       6 </atoms>
  <types>       2 </types>
  <array name="atoms" >
   <dimension dim="1">ion</dimension>
   <field type="string">element</field>
   <field type="int">atomtype</field>
   <set>
    <rc><c>H </c><c>   1</c></rc>
    <rc><c>H </c><c>   1</c></rc>
    <rc><c>H </c><c>   1</c></rc>
    <rc><c>H </c><c>   1</c></rc>
    <rc><c>C </c><c>   2</c></rc>
    <rc><c>C </c><c>   2</c></rc>
   </set>
  </array>
  <array name="atomtypes" >
   <dimension dim="1">type</dimension>
   <field type="int">atomspertype</field>
   <field type="string">element</field>
   <field>mass</field>
   <field>valence</field>
   <field type="string">pseudopotential</field>
   <set>
    <rc><c>   4</c><c>H </c><c>      1.00000000</c><c>      1.00000000</c><c> PAW_PBE H 15Jun2001                    </c></rc>
    <rc><c>   2</c><c>C </c><c>     12.01100000</c><c>      4.00000000</c><c> PAW_PBE C 08Apr2002                    </c></rc>
   </set>
  </array>
 </atominfo>
 <structure name="initialpos" >
  <crystal>
   <varray name="basis" >
    <v>      10.00000000       0.00000000       0.00000000 </v>
    <v>       0.00000000      10.00000000       0.00000000 </v>
    <v>       0.00000000       0.00000000      10.00000000 </v>
   </varray>
   <i name="volume">   1000.00000000 </i>
   <varray name="rec_basis" >
    <v>       0.10000000       0.00000000       0.00000000 </v>
    <v>       0.00000000       0.10000000       0.00000000 </v>
    <v>       0.00000000       0.00000000       0.10000000 </v>
   </varray>
  </crystal>
  <varray name="positions" >
   <v>       0.50000000       0.59228320       0.62376950 </v>
   <v>       0.50000000       0.40771680       0.62376950 </v>
   <v>       0.50000000       0.59228320       0.37623050 </v>
   <v>       0.50000000       0.40771680       0.37623050 </v>
   <v>       0.50000000       0.50000000       0.56674800 </v>
   <v>       0.50000000       0.50000000       0.43325200 </v>
  </varray>
 </structure>
 <calculation>
  <scstep>
   <time name="dav">    2.18    2.19</time>
   <time name="total">    5.67    5.68</time>
   <energy>
    <i name="alphaZ">      0.60581865 </i>
    <i name="ewald">    241.03674955 </i>
    <i name="hartreedc">   -458.62733927 </i>
    <i name="XCdc">     37.37628063 </i>
    <i name="pawpsdc">     77.52000561 </i>
    <i name="pawaedc">    -79.83705309 </i>
    <i name="eentropy">     -0.10106500 </i>
    <i name="bandstr">   -102.60786620 </i>
    <i name="atom">    344.01377183 </i>
    <i name="e_fr_energy">     59.37930271 </i>
    <i name="e_wo_entrp">     59.48036770 </i>
    <i name="e_0_energy">     59.42983521 </i>
   </energy>
  </scstep>
  <scstep>
   <time name="dav">    2.25    2.25</time>
   <time name="total">    2.25    2.27</time>
   <energy>
    <i name="e_fr_energy">    -13.86683475 </i>
    <i name="e_wo_entrp">    -13.86683475 </i>
    <i name="e_0_energy">    -13.86683475 </i>
   </energy>
  </scstep>
  <scstep>
   <time name="dav">    2.32    2.32</time>
   <time name="total">    2.32    2.34</time>
   <energy>
    <i name="e_fr_energy">    -27.70119495 </i>
    <i name="e_wo_entrp">    -27.70119495 </i>
    <i name="e_0_energy">    -27.70119495 </i>
   </energy>
  </scstep>
  <scstep>
   <time name="dav">    1.83    1.83</time>
   <time name="total">    1.83    1.84</time>
   <energy>
    <i name="e_fr_energy">    -28.00660551 </i>
    <i name="e_wo_entrp">    -28.00660551 </i>
    <i name="e_0_energy">    -28.00660551 </i>
   </energy>
  </scstep>
  <scstep>
   <time name="dav">    2.27    2.28</time>
   <time name="total">    2.87    2.88</time>
   <energy>
    <i name="e_fr_energy">    -28.01125862 </i>
    <i name="e_wo_entrp">    -28.01125862 </i>
    <i name="e_0_energy">    -28.01125862 </i>
   </energy>
  </scstep>
  <scstep>
   <time name="dav">    1.63    1.63</time>
   <time name="total">    5.89    5.91</time>
   <energy>
    <i name="e_fr_energy">    -13.36692096 </i>
    <i name="e_wo_entrp">    -13.36692096 </i>
    <i name="e_0_energy">    -13.36692096 </i>
   </energy>
  </scstep>
  <scstep>
   <time name="dav">    1.82    1.82</time>
   <time name="total">    6.59    6.75</time>
   <energy>
    <i name="e_fr_energy">    -27.19711593 </i>
    <i name="e_wo_entrp">    -27.19711593 </i>
    <i name="e_0_energy">    -27.19711593 </i>
   </energy>
  </scstep>
  <scstep>
   <time name="dav">    1.83    1.83</time>
   <time name="total">    6.59    6.61</time>
   <energy>
    <i name="e_fr_energy">    -29.59061288 </i>
    <i name="e_wo_entrp">    -29.59061288 </i>
    <i name="e_0_energy">    -29.59061288 </i>
   </energy>
  </scstep>
  <scstep>
   <time name="dav">    1.75    1.76</time>
   <time name="total">    6.49    6.51</time>
   <energy>
    <i name="e_fr_energy">    -31.71931340 </i>
    <i name="e_wo_entrp">    -31.71931340 </i>
    <i name="e_0_energy">    -31.71931340 </i>
   </energy>
  </scstep>
  <scstep>
   <time name="dav">    1.83    1.84</time>
   <time name="total">    6.61    6.62</time>
   <energy>
    <i name="e_fr_energy">    -31.90914052 </i>
    <i name="e_wo_entrp">    -31.90914052 </i>
    <i name="e_0_energy">    -31.90914052 </i>
   </energy>
  </scstep>
  <scstep>
   <time name="dav">    2.03    2.03</time>
   <time name="total">    6.74    6.75</time>
   <energy>
    <i name="e_fr_energy">    -31.91295805 </i>
    <i name="e_wo_entrp">    -31.91295805 </i>
    <i name="e_0_energy">    -31.91295805 </i>
   </energy>
  </scstep>
  <scstep>
   <time name="dav">    1.74    1.74</time>
   <time name="total">    6.48    6.49</time>
   <energy>
    <i name="e_fr_energy">    -31.90952454 </i>
    <i name="e_wo_entrp">    -31.90952454 </i>
    <i name="e_0_energy">    -31.90952454 </i>
   </energy>
  </scstep>
  <scstep>
   <time name="dav">    1.73    1.73</time>
   <time name="total">    6.50    6.52</time>
   <energy>
    <i name="e_fr_energy">    -31.91213585 </i>
    <i name="e_wo_entrp">    -31.91213585 </i>
    <i name="e_0_energy">    -31.91213585 </i>
   </energy>
  </scstep>
  <scstep>
   <time name="dav">    1.74    1.74</time>
   <time name="total">    6.51    6.52</time>
   <energy>
    <i name="e_fr_energy">    -31.92102201 </i>
    <i name="e_wo_entrp">    -31.92102201 </i>
    <i name="e_0_energy">    -31.92102201 </i>
   </energy>
  </scstep>
  <scstep>
   <time name="dav">    1.87    1.87</time>
   <time name="total">    6.65    6.67</time>
   <energy>
    <i name="e_fr_energy">    -31.92357895 </i>
    <i name="e_wo_entrp">    -31.92357895 </i>
    <i name="e_0_energy">    -31.92357895 </i>
   </energy>
  </scstep>
  <scstep>
   <time name="dav">    2.09    2.15</time>
   <time name="total">    6.77    6.92</time>
   <energy>
    <i name="e_fr_energy">    -31.92622494 </i>
    <i name="e_wo_entrp">    -31.92622494 </i>
    <i name="e_0_energy">    -31.92622494 </i>
   </energy>
  </scstep>
  <scstep>
   <time name="dav">    1.96    1.96</time>
   <time name="total">    6.51    6.52</time>
   <energy>
    <i name="e_fr_energy">    -31.92822971 </i>
    <i name="e_wo_entrp">    -31.92822971 </i>
    <i name="e_0_energy">    -31.92822971 </i>
   </energy>
  </scstep>
  <scstep>
   <time name="dav">    1.82    1.82</time>
   <time name="total">    6.57    6.58</time>
   <energy>
    <i name="e_fr_energy">    -31.92889507 </i>
    <i name="e_wo_entrp">    -31.92889507 </i>
    <i name="e_0_energy">    -31.92889507 </i>
   </energy>
  </scstep>
  <scstep>
   <time name="dav">    1.69    1.69</time>
   <time name="total">    6.50    6.52</time>
   <energy>
    <i name="e_fr_energy">    -31.92906069 </i>
    <i name="e_wo_entrp">    -31.92906069 </i>
    <i name="e_0_energy">    -31.92906069 </i>
   </energy>
  </scstep>
  <scstep>
   <time name="dav">    1.68    1.68</time>
   <time name="total">    6.47    6.48</time>
   <energy>
    <i name="e_fr_energy">    -31.92919227 </i>
    <i name="e_wo_entrp">    -31.92919227 </i>
    <i name="e_0_energy">    -31.92919227 </i>
   </energy>
  </scstep>
  <scstep>
   <time name="dav">    1.81    1.81</time>
   <time name="total">    5.85    5.87</time>
   <energy>
    <i name="alphaZ">      0.60581865 </i>
    <i name="ewald">    241.03674955 </i>
    <i name="hartreedc">   -516.38878666 </i>
    <i name="XCdc">     39.16024737 </i>
    <i name="pawpsdc">    158.68535976 </i>
    <i name="pawaedc">   -161.32939570 </i>
    <i name="eentropy">      0.00000000 </i>
    <i name="bandstr">   -137.71299352 </i>
    <i name="atom">    344.01377183 </i>
    <i name="e_fr_energy">    -31.92922872 </i>
    <i name="e_wo_entrp">    -31.92922872 </i>
    <i name="e_0_energy">    -31.92922872 </i>
   </energy>
  </scstep>
  <parameters_embedded>
   <separator name="dft+d2" >
    <i type="logical" name="LVDW"> F  </i>
   </separator>
  </parameters_embedded>
  <structure>
   <crystal>
    <varray name="basis" >
     <v>      10.00000000       0.00000000       0.00000000 </v>
     <v>       0.00000000      10.00000000       0.00000000 </v>
     <v>       0.00000000       0.00000000      10.00000000 </v>
    </varray>
    <i name="volume">   1000.00000000 </i>
    <varray name="rec_basis" >
     <v>       0.10000000       0.00000000       0.00000000 </v>
     <v>       0.00000000       0.10000000       0.00000000 </v>
     <v>       0.00000000       0.00000000       0.10000000 </v>
    </varray>
   </crystal>
   <varray name="positions" >
    <v>       0.50000000       0.59228320       0.62376950 </v>
    <v>       0.50000000       0.40771680       0.62376950 </v>
    <v>       0.50000000       0.59228320       0.37623050 </v>
    <v>       0.50000000       0.40771680       0.37623050 </v>
    <v>       0.50000000       0.50000000       0.56674800 </v>
    <v>       0.50000000       0.50000000       0.43325200 </v>
   </varray>
  </structure>
  <varray name="forces" >
   <v>       0.00000000       0.28247219       0.16442574 </v>
   <v>       0.00000000      -0.28247219       0.16442574 </v>
   <v>       0.00000000       0.28247219      -0.16442574 </v>
   <v>       0.00000000      -0.28247219      -0.16442574 </v>
   <v>       0.00000000       0.00000000      -0.35406658 </v>
   <v>       0.00000000       0.00000000       0.35406658 </v>
  </varray>
  <varray name="stress" >
   <v>      -2.19268412       0.00000000       0.00000000 </v>
   <v>       0.00000000      -0.75418738       0.00000000 </v>
   <v>       0.00000000       0.00000000      -1.59656209 </v>
  </varray>
  <energy>
   <i name="e_fr_energy">    -31.92922872 </i>
   <i name="e_wo_entrp">    -31.92922872 </i>
   <i name="e_0_energy">      0.00000000 </i>
  </energy>
  <time name="totalsc">  129.70  130.55</time>
 </calculation>
 <calculation>
  <scstep>
   <time name="dav">    2.04    2.04</time>
   <time name="total">    6.50    6.50</time>
   <energy>
    <i name="alphaZ">      0.60581865 </i>
    <i name="ewald">    240.53846179 </i>
    <i name="hartreedc">   -516.59305280 </i>
    <i name="XCdc">     39.11072918 </i>
    <i name="pawpsdc">    158.69124995 </i>
    <i name="pawaedc">   -161.33537889 </i>
    <i name="eentropy">      0.00000000 </i>
    <i name="bandstr">   -136.92208632 </i>
    <i name="atom">    344.01377183 </i>
    <i name="e_fr_energy">    -31.89048662 </i>
    <i name="e_wo_entrp">    -31.89048662 </i>
    <i name="e_0_energy">    -31.89048662 </i>
   </energy>
  </scstep>
  <scstep>
   <time name="dav">    1.80    1.80</time>
   <time name="total">    6.40    6.42</time>
   <energy>
    <i name="e_fr_energy">    -31.89038658 </i>
    <i name="e_wo_entrp">    -31.89038658 </i>
    <i name="e_0_energy">    -31.89038658 </i>
   </energy>
  </scstep>
  <scstep>
   <time name="dav">    1.88    1.88</time>
   <time name="total">    6.53    6.55</time>
   <energy>
    <i name="e_fr_energy">    -31.88848984 </i>
    <i name="e_wo_entrp">    -31.88848984 </i>
    <i name="e_0_energy">    -31.88848984 </i>
   </energy>
  </scstep>
  <scstep>
   <time name="dav">    1.89    1.89</time>
   <time name="total">    6.75    6.76</time>
   <energy>
    <i name="e_fr_energy">    -31.88839703 </i>
    <i name="e_wo_entrp">    -31.88839703 </i>
    <i name="e_0_energy">    -31.88839703 </i>
   </energy>
  </scstep>
  <scstep>
   <time name="dav">    1.91    1.91</time>
   <time name="total">    6.13    6.14</time>
   <energy>
    <i name="alphaZ">      0.60581865 </i>
    <i name="ewald">    240.53846179 </i>
    <i name="hartreedc">   -516.19008002 </i>
    <i name="XCdc">     39.06592715 </i>
    <i name="pawpsdc">    157.91235397 </i>
    <i name="pawaedc">   -160.55334194 </i>
    <i name="eentropy">      0.00000000 </i>
    <i name="bandstr">   -137.28130911 </i>
    <i name="atom">    344.01377183 </i>
    <i name="e_fr_energy">    -31.88839768 </i>
    <i name="e_wo_entrp">    -31.88839768 </i>
    <i name="e_0_energy">    -31.88839768 </i>
   </energy>
  </scstep>
  <structure>
   <crystal>
    <varray name="basis" >
     <v>      10.00000000       0.00000000       0.00000000 </v>
     <v>       0.00000000      10.00000000       0.00000000 </v>
     <v>       0.00000000       0.00000000      10.00000000 </v>
    </varray>
    <i name="volume">   1000.00000000 </i>
    <varray name="rec_basis" >
     <v>       0.10000000       0.00000000       0.00000000 </v>
     <v>       0.00000000       0.10000000       0.00000000 </v>
     <v>       0.00000000       0.00000000       0.10000000 </v>
    </varray>
   </crystal>
   <varray name="positions" >
    <v>       0.50000000       0.59364592       0.62456273 </v>
    <v>       0.50000000       0.40635408       0.62456273 </v>
    <v>       0.50000000       0.59364592       0.37543727 </v>
    <v>       0.50000000       0.40635408       0.37543727 </v>
    <v>       0.50000000       0.50000000       0.56503989 </v>
    <v>       0.50000000       0.50000000       0.43496011 </v>
   </varray>
  </structure>
  <varray name="forces" >
   <v>       0.00000000      -0.35425354      -0.26690611 </v>
   <v>       0.00000000       0.35425354      -0.26690611 </v>
   <v>       0.00000000      -0.35425354       0.26690611 </v>
   <v>       0.00000000       0.35425354       0.26690611 </v>
   <v>       0.00000000       0.00000000       2.54819596 </v>
   <v>       0.00000000       0.00000000      -2.54819596 </v>
  </varray>
  <varray name="stress" >
   <v>      -2.17651545       0.00000000       0.00000000 </v>
   <v>       0.00000000      -4.41653228       0.00000000 </v>
   <v>       0.00000000       0.00000000       1.02821837 </v>
  </varray>
  <energy>
   <i name="e_fr_energy">    -31.88839768 </i>
   <i name="e_wo_entrp">    -31.88839768 </i>
   <i name="e_0_energy">      0.00000000 </i>
  </energy>
  <time name="totalsc">   38.46   38.59</time>
 </calculation>
 <calculation>
  <scstep>
   <time name="dav">    1.74    1.74</time>
   <time name="total">    5.79    5.79</time>
   <energy>
    <i name="alphaZ">      0.60581865 </i>
    <i name="ewald">    240.88998173 </i>
    <i name="hartreedc">   -516.01659585 </i>
    <i name="XCdc">     39.10294943 </i>
    <i name="pawpsdc">    157.92088670 </i>
    <i name="pawaedc">   -160.56204275 </i>
    <i name="eentropy">      0.00000000 </i>
    <i name="bandstr">   -137.88895214 </i>
    <i name="atom">    344.01377183 </i>
    <i name="e_fr_energy">    -31.93418241 </i>
    <i name="e_wo_entrp">    -31.93418241 </i>
    <i name="e_0_energy">    -31.93418241 </i>
   </energy>
  </scstep>
  <scstep>
   <time name="dav">    1.92    1.92</time>
   <time name="total">    6.03    6.05</time>
   <energy>
    <i name="e_fr_energy">    -31.93405245 </i>
    <i name="e_wo_entrp">    -31.93405245 </i>
    <i name="e_0_energy">    -31.93405245 </i>
   </energy>
  </scstep>
  <scstep>
   <time name="dav">    1.86    1.86</time>
   <time name="total">    6.45    6.46</time>
   <energy>
    <i name="e_fr_energy">    -31.93296834 </i>
    <i name="e_wo_entrp">    -31.93296834 </i>
    <i name="e_0_energy">    -31.93296834 </i>
   </energy>
  </scstep>
  <scstep>
   <time name="dav">    2.00    2.00</time>
   <time name="total">    6.58    6.59</time>
   <energy>
    <i name="e_fr_energy">    -31.93289233 </i>
    <i name="e_wo_entrp">    -31.93289233 </i>
    <i name="e_0_energy">    -31.93289233 </i>
   </energy>
  </scstep>
  <scstep>
   <time name="dav">    1.89    1.89</time>
   <time name="total">    5.73    5.74</time>
   <energy>
    <i name="alphaZ">      0.60581865 </i>
    <i name="ewald">    240.88998173 </i>
    <i name="hartreedc">   -516.34678077 </i>
    <i name="XCdc">     39.13938795 </i>
    <i name="pawpsdc">    158.43992513 </i>
    <i name="pawaedc">   -161.08318776 </i>
    <i name="eentropy">      0.00000000 </i>
    <i name="bandstr">   -137.59181731 </i>
    <i name="atom">    344.01377183 </i>
    <i name="e_fr_energy">    -31.93290056 </i>
    <i name="e_wo_entrp">    -31.93290056 </i>
    <i name="e_0_energy">    -31.93290056 </i>
   </energy>
  </scstep>
  <structure>
   <crystal>
    <varray name="basis" >
     <v>      10.00000000       0.00000000       0.00000000 </v>
     <v>       0.00000000      10.00000000       0.00000000 </v>
     <v>       0.00000000       0.00000000      10.00000000 </v>
    </varray>
    <i name="volume">   1000.00000000 </i>
    <varray name="rec_basis" >
     <v>       0.10000000       0.00000000       0.00000000 </v>
     <v>       0.00000000       0.10000000       0.00000000 </v>
     <v>       0.00000000       0.00000000       0.10000000 </v>
    </varray>
   </crystal>
   <varray name="positions" >
    <v>       0.50000000       0.59258532       0.62394536 </v>
    <v>       0.50000000       0.40741468       0.62394536 </v>
    <v>       0.50000000       0.59258532       0.37605464 </v>
    <v>       0.50000000       0.40741468       0.37605464 </v>
    <v>       0.50000000       0.50000000       0.56636931 </v>
    <v>       0.50000000       0.50000000       0.43363069 </v>
   </varray>
  </structure>
  <varray name="forces" >
   <v>       0.00000000       0.13465273       0.06605631 </v>
   <v>       0.00000000      -0.13465273       0.06605631 </v>
   <v>       0.00000000       0.13465273      -0.06605631 </v>
   <v>       0.00000000      -0.13465273      -0.06605631 </v>
   <v>       0.00000000       0.00000000       0.26541725 </v>
   <v>       0.00000000       0.00000000      -0.26541725 </v>
  </varray>
  <varray name="stress" >
   <v>      -2.21607401       0.00000000       0.00000000 </v>
   <v>       0.00000000      -1.62062085       0.00000000 </v>
   <v>       0.00000000       0.00000000      -1.07870725 </v>
  </varray>
  <energy>
   <i name="e_fr_energy">    -31.93290056 </i>
   <i name="e_wo_entrp">    -31.93290056 </i>
   <i name="e_0_energy">      0.00000000 </i>
  </energy>
  <time name="totalsc">   37.53   37.66</time>
 </calculation>
 <calculation>
  <scstep>
   <time name="dav">    1.92    1.92</time>
   <time name="total">    6.36    6.36</time>
   <energy>
    <i name="alphaZ">      0.60581865 </i>
    <i name="ewald">    237.01800578 </i>
    <i name="hartreedc">   -513.76902302 </i>
    <i name="XCdc">     39.04585341 </i>
    <i name="pawpsdc">    158.43113987 </i>
    <i name="pawaedc">   -161.07427515 </i>
    <i name="eentropy">      0.00000000 </i>
    <i name="bandstr">   -136.20722478 </i>
    <i name="atom">    344.01377183 </i>
    <i name="e_fr_energy">    -31.93593341 </i>
    <i name="e_wo_entrp">    -31.93593341 </i>
    <i name="e_0_energy">    -31.93593341 </i>
   </energy>
  </scstep>
  <scstep>
   <time name="dav">    1.83    1.83</time>
   <time name="total">    6.54    6.64</time>
   <energy>
    <i name="e_fr_energy">    -31.93429866 </i>
    <i name="e_wo_entrp">    -31.93429866 </i>
    <i name="e_0_energy">    -31.93429866 </i>
   </energy>
  </scstep>
  <scstep>
   <time name="dav">    2.32    2.32</time>
   <time name="total">    7.02    7.04</time>
   <energy>
    <i name="e_fr_energy">    -31.93404497 </i>
    <i name="e_wo_entrp">    -31.93404497 </i>
    <i name="e_0_energy">    -31.93404497 </i>
   </energy>
  </scstep>
  <scstep>
   <time name="dav">    1.61    1.61</time>
   <time name="total">    5.05    5.07</time>
   <energy>
    <i name="alphaZ">      0.60581865 </i>
    <i name="ewald">    237.01800578 </i>
    <i name="hartreedc">   -512.78950367 </i>
    <i name="XCdc">     38.99528169 </i>
    <i name="pawpsdc">    155.55961432 </i>
    <i name="pawaedc">   -158.18823382 </i>
    <i name="eentropy">      0.00000000 </i>
    <i name="bandstr">   -137.14872678 </i>
    <i name="atom">    344.01377183 </i>
    <i name="e_fr_energy">    -31.93397200 </i>
    <i name="e_wo_entrp">    -31.93397200 </i>
    <i name="e_0_energy">    -31.93397200 </i>
   </energy>
  </scstep>
  <structure>
   <crystal>
    <varray name="basis" >
     <v>      10.00000000       0.00000000       0.00000000 </v>
     <v>       0.00000000      10.00000000       0.00000000 </v>
     <v>       0.00000000       0.00000000      10.00000000 </v>
    </varray>
    <i name="volume">   1000.00000000 </i>
    <varray name="rec_basis" >
     <v>       0.10000000       0.00000000       0.00000000 </v>
     <v>       0.00000000       0.10000000       0.00000000 </v>
     <v>       0.00000000       0.00000000       0.10000000 </v>
    </varray>
   </crystal>
   <varray name="positions" >
    <v>       0.50000000       0.59351262       0.62443494 </v>
    <v>       0.50000000       0.40648738       0.62443494 </v>
    <v>       0.50000000       0.59351262       0.37556506 </v>
    <v>       0.50000000       0.40648738       0.37556506 </v>
    <v>       0.50000000       0.50000000       0.56697560 </v>
    <v>       0.50000000       0.50000000       0.43302440 </v>
   </varray>
  </structure>
  <varray name="forces" >
   <v>       0.00000000      -0.10045891      -0.04585872 </v>
   <v>       0.00000000       0.10045891      -0.04585872 </v>
   <v>       0.00000000      -0.10045891       0.04585872 </v>
   <v>       0.00000000       0.10045891       0.04585872 </v>
   <v>       0.00000000       0.00000000      -0.23075536 </v>
   <v>       0.00000000       0.00000000       0.23075536 </v>
  </varray>
  <varray name="stress" >
   <v>      -2.11497550       0.00000000       0.00000000 </v>
   <v>       0.00000000      -2.83202516       0.00000000 </v>
   <v>       0.00000000       0.00000000      -2.89181929 </v>
  </varray>
  <energy>
   <i name="e_fr_energy">    -31.93397200 </i>
   <i name="e_wo_entrp">    -31.93397200 </i>
   <i name="e_0_energy">      0.00000000 </i>
  </energy>
  <time name="totalsc">   31.72   31.99</time>
 </calculation>
 <calculation>
  <scstep>
   <time name="dav">    1.80    1.80</time>
   <time name="total">    6.54    6.54</time>
   <energy>
    <i name="alphaZ">      0.60581865 </i>
    <i name="ewald">    238.70891052 </i>
    <i name="hartreedc">   -513.94889681 </i>
    <i name="XCdc">     39.03660104 </i>
    <i name="pawpsdc">    155.38255226 </i>
    <i name="pawaedc">   -158.01198001 </i>
    <i name="eentropy">      0.00000000 </i>
    <i name="bandstr">   -137.72267677 </i>
    <i name="atom">    344.01377183 </i>
    <i name="e_fr_energy">    -31.93589929 </i>
    <i name="e_wo_entrp">    -31.93589929 </i>
    <i name="e_0_energy">    -31.93589929 </i>
   </energy>
  </scstep>
  <scstep>
   <time name="dav">    2.44    2.45</time>
   <time name="total">    7.20    7.86</time>
   <energy>
    <i name="e_fr_energy">    -31.93558842 </i>
    <i name="e_wo_entrp">    -31.93558842 </i>
    <i name="e_0_energy">    -31.93558842 </i>
   </energy>
  </scstep>
  <scstep>
   <time name="dav">    1.91    1.91</time>
   <time name="total">    6.10    6.12</time>
   <energy>
    <i name="alphaZ">      0.60581865 </i>
    <i name="ewald">    238.70891052 </i>
    <i name="hartreedc">   -514.42384475 </i>
    <i name="XCdc">     39.06084916 </i>
    <i name="pawpsdc">    156.69537426 </i>
    <i name="pawaedc">   -159.33177265 </i>
    <i name="eentropy">      0.00000000 </i>
    <i name="bandstr">   -137.26466388 </i>
    <i name="atom">    344.01377183 </i>
    <i name="e_fr_energy">    -31.93555686 </i>
    <i name="e_wo_entrp">    -31.93555686 </i>
    <i name="e_0_energy">    -31.93555686 </i>
   </energy>
  </scstep>
  <structure>
   <crystal>
    <varray name="basis" >
     <v>      10.00000000       0.00000000       0.00000000 </v>
     <v>       0.00000000      10.00000000       0.00000000 </v>
     <v>       0.00000000       0.00000000      10.00000000 </v>
    </varray>
    <i name="volume">   1000.00000000 </i>
    <varray name="rec_basis" >
     <v>       0.10000000       0.00000000       0.00000000 </v>
     <v>       0.00000000       0.10000000       0.00000000 </v>
     <v>       0.00000000       0.00000000       0.10000000 </v>
    </varray>
   </crystal>
   <varray name="positions" >
    <v>       0.50000000       0.59310605       0.62422029 </v>
    <v>       0.50000000       0.40689395       0.62422029 </v>
    <v>       0.50000000       0.59310605       0.37577971 </v>
    <v>       0.50000000       0.40689395       0.37577971 </v>
    <v>       0.50000000       0.50000000       0.56670978 </v>
    <v>       0.50000000       0.50000000       0.43329022 </v>
   </varray>
  </structure>
  <varray name="forces" >
   <v>       0.00000000       0.00855663       0.00866089 </v>
   <v>       0.00000000      -0.00855663       0.00866089 </v>
   <v>       0.00000000       0.00855663      -0.00866089 </v>
   <v>       0.00000000      -0.00855663      -0.00866089 </v>
   <v>       0.00000000       0.00000000       0.00783261 </v>
   <v>       0.00000000       0.00000000      -0.00783261 </v>
  </varray>
  <varray name="stress" >
   <v>      -2.29075508       0.00000000       0.00000000 </v>
   <v>       0.00000000      -2.44755593       0.00000000 </v>
   <v>       0.00000000       0.00000000      -2.13643393 </v>
  </varray>
  <energy>
   <i name="e_fr_energy">    -31.93555686 </i>
   <i name="e_wo_entrp">    -31.93555686 </i>
   <i name="e_0_energy">      0.00000000 </i>
  </energy>
  <time name="totalsc">   26.79   29.06</time>
  <eigenvalues>
   <array>
    <dimension dim="1">band</dimension>
    <dimension dim="2">kpoint</dimension>
    <dimension dim="3">spin</dimension>
    <field>eigene</field>
    <field>occ</field>
    <set>
     <set comment="spin 1">
      <set comment="kpoint 1">
       <r>  -18.5962    1.0000 </r>
       <r>  -14.0073    1.0000 </r>
       <r>  -11.2213    1.0000 </r>
       <r>   -9.9653    1.0000 </r>
       <r>   -8.2791    1.0000 </r>
       <r>   -6.5632    1.0000 </r>
       <r>   -0.8852    0.0000 </r>
       <r>   -0.4349    0.0000 </r>
       <r>    0.7104    0.0000 </r>
       <r>    0.7222    0.0000 </r>
      </set>
     </set>
     <set comment="spin 2">
      <set comment="kpoint 1">
       <r>  -18.5962    1.0000 </r>
       <r>  -14.0073    1.0000 </r>
       <r>  -11.2212    1.0000 </r>
       <r>   -9.9653    1.0000 </r>
       <r>   -8.2791    1.0000 </r>
       <r>   -6.5631    1.0000 </r>
       <r>   -0.8852    0.0000 </r>
       <r>   -0.4346    0.0000 </r>
       <r>    0.7105    0.0000 </r>
       <r>    0.7224    0.0000 </r>
      </set>
     </set>
    </set>
   </array>
  </eigenvalues>
  <separator name="orbital magnetization" >
   <v name="MAGDIPOLOUT">      0.00000000      0.00000000      0.00000000</v>
  </separator>
  <dos>
   <i name="efermi">     -5.59441862 </i>
   <total>
    <array>
     <dimension dim="1">gridpoints</dimension>
     <dimension dim="2">spin</dimension>
     <field>energy</field>
     <field>total</field>
     <field>integrated</field>
     <set>
      <set comment="spin 1">
       <r>   -20.5962     0.0000     0.0000 </r>
       <r>   -20.5185     0.0000     0.0000 </r>
       <r>   -20.4408     0.0000     0.0000 </r>
       <r>   -20.3631     0.0000     0.0000 </r>
       <r>   -20.2853     0.0000     0.0000 </r>
       <r>   -20.2076     0.0000     0.0000 </r>
       <r>   -20.1299     0.0000     0.0000 </r>
       <r>   -20.0521     0.0000     0.0000 </r>
       <r>   -19.9744     0.0000     0.0000 </r>
       <r>   -19.8967     0.0000     0.0000 </r>
       <r>   -19.8190     0.0000     0.0000 </r>
       <r>   -19.7412     0.0000     0.0000 </r>
       <r>   -19.6635     0.0000     0.0000 </r>
       <r>   -19.5858     0.0000     0.0000 </r>
       <r>   -19.5080     0.0000     0.0000 </r>
       <r>   -19.4303     0.0000     0.0000 </r>
       <r>   -19.3526     0.0000     0.0000 </r>
       <r>   -19.2749     0.0000     0.0000 </r>
       <r>   -19.1971     0.0001     0.0000 </r>
       <r>   -19.1194     0.0013     0.0001 </r>
       <r>   -19.0417     0.0091     0.0008 </r>
       <r>   -18.9639     0.0495     0.0047 </r>
       <r>   -18.8862     0.1995     0.0202 </r>
       <r>   -18.8085     0.5988     0.0667 </r>
       <r>   -18.7307     1.3388     0.1708 </r>
       <r>   -18.6530     2.2290     0.3440 </r>
       <r>   -18.5753     2.7641     0.5589 </r>
       <r>   -18.4976     2.5532     0.7573 </r>
       <r>   -18.4198     1.7565     0.8939 </r>
       <r>   -18.3421     0.9001     0.9638 </r>
       <r>   -18.2644     0.3434     0.9905 </r>
       <r>   -18.1866     0.0976     0.9981 </r>
       <r>   -18.1089     0.0206     0.9997 </r>
       <r>   -18.0312     0.0032     1.0000 </r>
       <r>   -17.9535     0.0004     1.0000 </r>
       <r>   -17.8757     0.0000     1.0000 </r>
       <r>   -17.7980     0.0000     1.0000 </r>
       <r>   -17.7203     0.0000     1.0000 </r>
       <r>   -17.6425     0.0000     1.0000 </r>
       <r>   -17.5648     0.0000     1.0000 </r>
       <r>   -17.4871     0.0000     1.0000 </r>
       <r>   -17.4094     0.0000     1.0000 </r>
       <r>   -17.3316     0.0000     1.0000 </r>
       <r>   -17.2539     0.0000     1.0000 </r>
       <r>   -17.1762     0.0000     1.0000 </r>
       <r>   -17.0984     0.0000     1.0000 </r>
       <r>   -17.0207     0.0000     1.0000 </r>
       <r>   -16.9430     0.0000     1.0000 </r>
       <r>   -16.8653     0.0000     1.0000 </r>
       <r>   -16.7875     0.0000     1.0000 </r>
       <r>   -16.7098     0.0000     1.0000 </r>
       <r>   -16.6321     0.0000     1.0000 </r>
       <r>   -16.5543     0.0000     1.0000 </r>
       <r>   -16.4766     0.0000     1.0000 </r>
       <r>   -16.3989     0.0000     1.0000 </r>
       <r>   -16.3212     0.0000     1.0000 </r>
       <r>   -16.2434     0.0000     1.0000 </r>
       <r>   -16.1657     0.0000     1.0000 </r>
       <r>   -16.0880     0.0000     1.0000 </r>
       <r>   -16.0102     0.0000     1.0000 </r>
       <r>   -15.9325     0.0000     1.0000 </r>
       <r>   -15.8548     0.0000     1.0000 </r>
       <r>   -15.7771     0.0000     1.0000 </r>
       <r>   -15.6993     0.0000     1.0000 </r>
       <r>   -15.6216     0.0000     1.0000 </r>
       <r>   -15.5439     0.0000     1.0000 </r>
       <r>   -15.4661     0.0000     1.0000 </r>
       <r>   -15.3884     0.0000     1.0000 </r>
       <r>   -15.3107     0.0000     1.0000 </r>
       <r>   -15.2330     0.0000     1.0000 </r>
       <r>   -15.1552     0.0000     1.0000 </r>
       <r>   -15.0775     0.0000     1.0000 </r>
       <r>   -14.9998     0.0000     1.0000 </r>
       <r>   -14.9220     0.0000     1.0000 </r>
       <r>   -14.8443     0.0000     1.0000 </r>
       <r>   -14.7666     0.0000     1.0000 </r>
       <r>   -14.6888     0.0000     1.0000 </r>
       <r>   -14.6111     0.0001     1.0000 </r>
       <r>   -14.5334     0.0012     1.0001 </r>
       <r>   -14.4557     0.0085     1.0008 </r>
       <r>   -14.3779     0.0466     1.0044 </r>
       <r>   -14.3002     0.1902     1.0192 </r>
       <r>   -14.2225     0.5775     1.0641 </r>
       <r>   -14.1447     1.3056     1.1655 </r>
       <r>   -14.0670     2.1981     1.3364 </r>
       <r>   -13.9893     2.7564     1.5507 </r>
       <r>   -13.9116     2.5746     1.7508 </r>
       <r>   -13.8338     1.7912     1.8900 </r>
       <r>   -13.7561     0.9281     1.9621 </r>
       <r>   -13.6784     0.3581     1.9900 </r>
       <r>   -13.6006     0.1029     1.9980 </r>
       <r>   -13.5229     0.0220     1.9997 </r>
       <r>   -13.4452     0.0035     2.0000 </r>
       <r>   -13.3675     0.0004     2.0000 </r>
       <r>   -13.2897     0.0000     2.0000 </r>
       <r>   -13.2120     0.0000     2.0000 </r>
       <r>   -13.1343     0.0000     2.0000 </r>
       <r>   -13.0565     0.0000     2.0000 </r>
       <r>   -12.9788     0.0000     2.0000 </r>
       <r>   -12.9011     0.0000     2.0000 </r>
       <r>   -12.8234     0.0000     2.0000 </r>
       <r>   -12.7456     0.0000     2.0000 </r>
       <r>   -12.6679     0.0000     2.0000 </r>
       <r>   -12.5902     0.0000     2.0000 </r>
       <r>   -12.5124     0.0000     2.0000 </r>
       <r>   -12.4347     0.0000     2.0000 </r>
       <r>   -12.3570     0.0000     2.0000 </r>
       <r>   -12.2793     0.0000     2.0000 </r>
       <r>   -12.2015     0.0000     2.0000 </r>
       <r>   -12.1238     0.0000     2.0000 </r>
       <r>   -12.0461     0.0000     2.0000 </r>
       <r>   -11.9683     0.0000     2.0000 </r>
       <r>   -11.8906     0.0000     2.0000 </r>
       <r>   -11.8129     0.0002     2.0000 </r>
       <r>   -11.7352     0.0016     2.0001 </r>
       <r>   -11.6574     0.0113     2.0010 </r>
       <r>   -11.5797     0.0593     2.0056 </r>
       <r>   -11.5020     0.2309     2.0236 </r>
       <r>   -11.4242     0.6693     2.0756 </r>
       <r>   -11.3465     1.4447     2.1879 </r>
       <r>   -11.2688     2.3224     2.3684 </r>
       <r>   -11.1910     2.7807     2.5846 </r>
       <r>   -11.1133     2.4800     2.7773 </r>
       <r>   -11.0356     1.6474     2.9054 </r>
       <r>   -10.9579     0.8150     2.9687 </r>
       <r>   -10.8801     0.3003     2.9921 </r>
       <r>   -10.8024     0.0824     2.9985 </r>
       <r>   -10.7247     0.0168     2.9998 </r>
       <r>   -10.6469     0.0026     3.0000 </r>
       <r>   -10.5692     0.0004     3.0000 </r>
       <r>   -10.4915     0.0012     3.0001 </r>
       <r>   -10.4138     0.0085     3.0008 </r>
       <r>   -10.3360     0.0466     3.0044 </r>
       <r>   -10.2583     0.1901     3.0192 </r>
       <r>   -10.1806     0.5771     3.0640 </r>
       <r>   -10.1028     1.3050     3.1655 </r>
       <r>   -10.0251     2.1976     3.3363 </r>
       <r>    -9.9474     2.7563     3.5505 </r>
       <r>    -9.8697     2.5750     3.7507 </r>
       <r>    -9.7919     1.7918     3.8899 </r>
       <r>    -9.7142     0.9286     3.9621 </r>
       <r>    -9.6365     0.3584     3.9900 </r>
       <r>    -9.5587     0.1030     3.9980 </r>
       <r>    -9.4810     0.0220     3.9997 </r>
       <r>    -9.4033     0.0035     4.0000 </r>
       <r>    -9.3256     0.0004     4.0000 </r>
       <r>    -9.2478     0.0000     4.0000 </r>
       <r>    -9.1701     0.0000     4.0000 </r>
       <r>    -9.0924     0.0000     4.0000 </r>
       <r>    -9.0146     0.0000     4.0000 </r>
       <r>    -8.9369     0.0000     4.0000 </r>
       <r>    -8.8592     0.0002     4.0000 </r>
       <r>    -8.7815     0.0022     4.0002 </r>
       <r>    -8.7037     0.0148     4.0013 </r>
       <r>    -8.6260     0.0739     4.0071 </r>
       <r>    -8.5483     0.2756     4.0285 </r>
       <r>    -8.4705     0.7645     4.0879 </r>
       <r>    -8.3928     1.5795     4.2107 </r>
       <r>    -8.3151     2.4303     4.3996 </r>
       <r>    -8.2374     2.7853     4.6161 </r>
       <r>    -8.1596     2.3776     4.8009 </r>
       <r>    -8.0819     1.5117     4.9184 </r>
       <r>    -8.0042     0.7158     4.9741 </r>
       <r>    -7.9264     0.2524     4.9937 </r>
       <r>    -7.8487     0.0663     4.9988 </r>
       <r>    -7.7710     0.0129     4.9998 </r>
       <r>    -7.6932     0.0019     5.0000 </r>
       <r>    -7.6155     0.0002     5.0000 </r>
       <r>    -7.5378     0.0000     5.0000 </r>
       <r>    -7.4601     0.0000     5.0000 </r>
       <r>    -7.3823     0.0000     5.0000 </r>
       <r>    -7.3046     0.0000     5.0000 </r>
       <r>    -7.2269     0.0000     5.0000 </r>
       <r>    -7.1491     0.0002     5.0000 </r>
       <r>    -7.0714     0.0019     5.0002 </r>
       <r>    -6.9937     0.0129     5.0012 </r>
       <r>    -6.9160     0.0662     5.0063 </r>
       <r>    -6.8382     0.2521     5.0259 </r>
       <r>    -6.7605     0.7153     5.0815 </r>
       <r>    -6.6828     1.5109     5.1989 </r>
       <r>    -6.6050     2.3770     5.3837 </r>
       <r>    -6.5273     2.7852     5.6002 </r>
       <r>    -6.4496     2.4310     5.7892 </r>
       <r>    -6.3719     1.5803     5.9120 </r>
       <r>    -6.2941     0.7651     5.9715 </r>
       <r>    -6.2164     0.2759     5.9929 </r>
       <r>    -6.1387     0.0740     5.9987 </r>
       <r>    -6.0609     0.0148     5.9998 </r>
       <r>    -5.9832     0.0022     6.0000 </r>
       <r>    -5.9055     0.0002     6.0000 </r>
       <r>    -5.8278     0.0000     6.0000 </r>
       <r>    -5.7500     0.0000     6.0000 </r>
       <r>    -5.6723     0.0000     6.0000 </r>
       <r>    -5.5946     0.0000     6.0000 </r>
       <r>    -5.5168     0.0000     6.0000 </r>
       <r>    -5.4391     0.0000     6.0000 </r>
       <r>    -5.3614     0.0000     6.0000 </r>
       <r>    -5.2837     0.0000     6.0000 </r>
       <r>    -5.2059     0.0000     6.0000 </r>
       <r>    -5.1282     0.0000     6.0000 </r>
       <r>    -5.0505     0.0000     6.0000 </r>
       <r>    -4.9727     0.0000     6.0000 </r>
       <r>    -4.8950     0.0000     6.0000 </r>
       <r>    -4.8173     0.0000     6.0000 </r>
       <r>    -4.7396     0.0000     6.0000 </r>
       <r>    -4.6618     0.0000     6.0000 </r>
       <r>    -4.5841     0.0000     6.0000 </r>
       <r>    -4.5064     0.0000     6.0000 </r>
       <r>    -4.4286     0.0000     6.0000 </r>
       <r>    -4.3509     0.0000     6.0000 </r>
       <r>    -4.2732     0.0000     6.0000 </r>
       <r>    -4.1955     0.0000     6.0000 </r>
       <r>    -4.1177     0.0000     6.0000 </r>
       <r>    -4.0400     0.0000     6.0000 </r>
       <r>    -3.9623     0.0000     6.0000 </r>
       <r>    -3.8845     0.0000     6.0000 </r>
       <r>    -3.8068     0.0000     6.0000 </r>
       <r>    -3.7291     0.0000     6.0000 </r>
       <r>    -3.6513     0.0000     6.0000 </r>
       <r>    -3.5736     0.0000     6.0000 </r>
       <r>    -3.4959     0.0000     6.0000 </r>
       <r>    -3.4182     0.0000     6.0000 </r>
       <r>    -3.3404     0.0000     6.0000 </r>
       <r>    -3.2627     0.0000     6.0000 </r>
       <r>    -3.1850     0.0000     6.0000 </r>
       <r>    -3.1072     0.0000     6.0000 </r>
       <r>    -3.0295     0.0000     6.0000 </r>
       <r>    -2.9518     0.0000     6.0000 </r>
       <r>    -2.8741     0.0000     6.0000 </r>
       <r>    -2.7963     0.0000     6.0000 </r>
       <r>    -2.7186     0.0000     6.0000 </r>
       <r>    -2.6409     0.0000     6.0000 </r>
       <r>    -2.5631     0.0000     6.0000 </r>
       <r>    -2.4854     0.0000     6.0000 </r>
       <r>    -2.4077     0.0000     6.0000 </r>
       <r>    -2.3300     0.0000     6.0000 </r>
       <r>    -2.2522     0.0000     6.0000 </r>
       <r>    -2.1745     0.0000     6.0000 </r>
       <r>    -2.0968     0.0000     6.0000 </r>
       <r>    -2.0190     0.0000     6.0000 </r>
       <r>    -1.9413     0.0000     6.0000 </r>
       <r>    -1.8636     0.0000     6.0000 </r>
       <r>    -1.7859     0.0000     6.0000 </r>
       <r>    -1.7081     0.0000     6.0000 </r>
       <r>    -1.6304     0.0000     6.0000 </r>
       <r>    -1.5527     0.0000     6.0000 </r>
       <r>    -1.4749     0.0002     6.0000 </r>
       <r>    -1.3972     0.0017     6.0001 </r>
       <r>    -1.3195     0.0119     6.0011 </r>
       <r>    -1.2418     0.0616     6.0059 </r>
       <r>    -1.1640     0.2379     6.0243 </r>
       <r>    -1.0863     0.6847     6.0776 </r>
       <r>    -1.0086     1.4674     6.1916 </r>
       <r>    -0.9308     2.3438     6.3738 </r>
       <r>    -0.8531     2.7998     6.5914 </r>
       <r>    -0.7754     2.5471     6.7894 </r>
       <r>    -0.6977     1.9279     6.9393 </r>
       <r>    -0.6199     1.6189     7.0651 </r>
       <r>    -0.5422     1.9471     7.2164 </r>
       <r>    -0.4645     2.5650     7.4158 </r>
       <r>    -0.3867     2.7960     7.6332 </r>
       <r>    -0.3090     2.3183     7.8134 </r>
       <r>    -0.2313     1.4373     7.9251 </r>
       <r>    -0.1535     0.6641     7.9767 </r>
       <r>    -0.0758     0.2285     7.9944 </r>
       <r>     0.0019     0.0585     7.9990 </r>
       <r>     0.0796     0.0112     7.9999 </r>
       <r>     0.1574     0.0025     8.0001 </r>
       <r>     0.2351     0.0078     8.0007 </r>
       <r>     0.3128     0.0475     8.0044 </r>
       <r>     0.3906     0.2189     8.0214 </r>
       <r>     0.4683     0.7512     8.0798 </r>
       <r>     0.5460     1.9202     8.2290 </r>
       <r>     0.6237     3.6571     8.5133 </r>
       <r>     0.7015     5.1901     8.9167 </r>
       <r>     0.7792     5.4891     9.3434 </r>
       <r>     0.8569     4.3262     9.6796 </r>
       <r>     0.9347     2.5408     9.8771 </r>
       <r>     1.0124     1.1119     9.9636 </r>
       <r>     1.0901     0.3625     9.9917 </r>
       <r>     1.1678     0.0880     9.9986 </r>
       <r>     1.2456     0.0159     9.9998 </r>
       <r>     1.3233     0.0021    10.0000 </r>
       <r>     1.4010     0.0002    10.0000 </r>
       <r>     1.4788     0.0000    10.0000 </r>
       <r>     1.5565     0.0000    10.0000 </r>
       <r>     1.6342     0.0000    10.0000 </r>
       <r>     1.7119     0.0000    10.0000 </r>
       <r>     1.7897     0.0000    10.0000 </r>
       <r>     1.8674     0.0000    10.0000 </r>
       <r>     1.9451     0.0000    10.0000 </r>
       <r>     2.0229     0.0000    10.0000 </r>
       <r>     2.1006     0.0000    10.0000 </r>
       <r>     2.1783     0.0000    10.0000 </r>
       <r>     2.2560     0.0000    10.0000 </r>
       <r>     2.3338     0.0000    10.0000 </r>
       <r>     2.4115     0.0000    10.0000 </r>
       <r>     2.4892     0.0000    10.0000 </r>
       <r>     2.5670     0.0000    10.0000 </r>
       <r>     2.6447     0.0000    10.0000 </r>
       <r>     2.7224     0.0000    10.0000 </r>
      </set>
      <set comment="spin 2">
       <r>   -20.5962     0.0000     0.0000 </r>
       <r>   -20.5185     0.0000     0.0000 </r>
       <r>   -20.4408     0.0000     0.0000 </r>
       <r>   -20.3631     0.0000     0.0000 </r>
       <r>   -20.2853     0.0000     0.0000 </r>
       <r>   -20.2076     0.0000     0.0000 </r>
       <r>   -20.1299     0.0000     0.0000 </r>
       <r>   -20.0521     0.0000     0.0000 </r>
       <r>   -19.9744     0.0000     0.0000 </r>
       <r>   -19.8967     0.0000     0.0000 </r>
       <r>   -19.8190     0.0000     0.0000 </r>
       <r>   -19.7412     0.0000     0.0000 </r>
       <r>   -19.6635     0.0000     0.0000 </r>
       <r>   -19.5858     0.0000     0.0000 </r>
       <r>   -19.5080     0.0000     0.0000 </r>
       <r>   -19.4303     0.0000     0.0000 </r>
       <r>   -19.3526     0.0000     0.0000 </r>
       <r>   -19.2749     0.0000     0.0000 </r>
       <r>   -19.1971     0.0001     0.0000 </r>
       <r>   -19.1194     0.0013     0.0001 </r>
       <r>   -19.0417     0.0091     0.0008 </r>
       <r>   -18.9639     0.0494     0.0047 </r>
       <r>   -18.8862     0.1994     0.0202 </r>
       <r>   -18.8085     0.5987     0.0667 </r>
       <r>   -18.7307     1.3386     0.1707 </r>
       <r>   -18.6530     2.2288     0.3440 </r>
       <r>   -18.5753     2.7641     0.5588 </r>
       <r>   -18.4976     2.5533     0.7573 </r>
       <r>   -18.4198     1.7567     0.8939 </r>
       <r>   -18.3421     0.9002     0.9638 </r>
       <r>   -18.2644     0.3435     0.9905 </r>
       <r>   -18.1866     0.0976     0.9981 </r>
       <r>   -18.1089     0.0206     0.9997 </r>
       <r>   -18.0312     0.0032     1.0000 </r>
       <r>   -17.9535     0.0004     1.0000 </r>
       <r>   -17.8757     0.0000     1.0000 </r>
       <r>   -17.7980     0.0000     1.0000 </r>
       <r>   -17.7203     0.0000     1.0000 </r>
       <r>   -17.6425     0.0000     1.0000 </r>
       <r>   -17.5648     0.0000     1.0000 </r>
       <r>   -17.4871     0.0000     1.0000 </r>
       <r>   -17.4094     0.0000     1.0000 </r>
       <r>   -17.3316     0.0000     1.0000 </r>
       <r>   -17.2539     0.0000     1.0000 </r>
       <r>   -17.1762     0.0000     1.0000 </r>
       <r>   -17.0984     0.0000     1.0000 </r>
       <r>   -17.0207     0.0000     1.0000 </r>
       <r>   -16.9430     0.0000     1.0000 </r>
       <r>   -16.8653     0.0000     1.0000 </r>
       <r>   -16.7875     0.0000     1.0000 </r>
       <r>   -16.7098     0.0000     1.0000 </r>
       <r>   -16.6321     0.0000     1.0000 </r>
       <r>   -16.5543     0.0000     1.0000 </r>
       <r>   -16.4766     0.0000     1.0000 </r>
       <r>   -16.3989     0.0000     1.0000 </r>
       <r>   -16.3212     0.0000     1.0000 </r>
       <r>   -16.2434     0.0000     1.0000 </r>
       <r>   -16.1657     0.0000     1.0000 </r>
       <r>   -16.0880     0.0000     1.0000 </r>
       <r>   -16.0102     0.0000     1.0000 </r>
       <r>   -15.9325     0.0000     1.0000 </r>
       <r>   -15.8548     0.0000     1.0000 </r>
       <r>   -15.7771     0.0000     1.0000 </r>
       <r>   -15.6993     0.0000     1.0000 </r>
       <r>   -15.6216     0.0000     1.0000 </r>
       <r>   -15.5439     0.0000     1.0000 </r>
       <r>   -15.4661     0.0000     1.0000 </r>
       <r>   -15.3884     0.0000     1.0000 </r>
       <r>   -15.3107     0.0000     1.0000 </r>
       <r>   -15.2330     0.0000     1.0000 </r>
       <r>   -15.1552     0.0000     1.0000 </r>
       <r>   -15.0775     0.0000     1.0000 </r>
       <r>   -14.9998     0.0000     1.0000 </r>
       <r>   -14.9220     0.0000     1.0000 </r>
       <r>   -14.8443     0.0000     1.0000 </r>
       <r>   -14.7666     0.0000     1.0000 </r>
       <r>   -14.6888     0.0000     1.0000 </r>
       <r>   -14.6111     0.0001     1.0000 </r>
       <r>   -14.5334     0.0012     1.0001 </r>
       <r>   -14.4557     0.0085     1.0008 </r>
       <r>   -14.3779     0.0466     1.0044 </r>
       <r>   -14.3002     0.1902     1.0192 </r>
       <r>   -14.2225     0.5774     1.0640 </r>
       <r>   -14.1447     1.3054     1.1655 </r>
       <r>   -14.0670     2.1980     1.3364 </r>
       <r>   -13.9893     2.7564     1.5506 </r>
       <r>   -13.9116     2.5748     1.7507 </r>
       <r>   -13.8338     1.7914     1.8900 </r>
       <r>   -13.7561     0.9283     1.9621 </r>
       <r>   -13.6784     0.3582     1.9900 </r>
       <r>   -13.6006     0.1029     1.9980 </r>
       <r>   -13.5229     0.0220     1.9997 </r>
       <r>   -13.4452     0.0035     2.0000 </r>
       <r>   -13.3675     0.0004     2.0000 </r>
       <r>   -13.2897     0.0000     2.0000 </r>
       <r>   -13.2120     0.0000     2.0000 </r>
       <r>   -13.1343     0.0000     2.0000 </r>
       <r>   -13.0565     0.0000     2.0000 </r>
       <r>   -12.9788     0.0000     2.0000 </r>
       <r>   -12.9011     0.0000     2.0000 </r>
       <r>   -12.8234     0.0000     2.0000 </r>
       <r>   -12.7456     0.0000     2.0000 </r>
       <r>   -12.6679     0.0000     2.0000 </r>
       <r>   -12.5902     0.0000     2.0000 </r>
       <r>   -12.5124     0.0000     2.0000 </r>
       <r>   -12.4347     0.0000     2.0000 </r>
       <r>   -12.3570     0.0000     2.0000 </r>
       <r>   -12.2793     0.0000     2.0000 </r>
       <r>   -12.2015     0.0000     2.0000 </r>
       <r>   -12.1238     0.0000     2.0000 </r>
       <r>   -12.0461     0.0000     2.0000 </r>
       <r>   -11.9683     0.0000     2.0000 </r>
       <r>   -11.8906     0.0000     2.0000 </r>
       <r>   -11.8129     0.0002     2.0000 </r>
       <r>   -11.7352     0.0016     2.0001 </r>
       <r>   -11.6574     0.0113     2.0010 </r>
       <r>   -11.5797     0.0593     2.0056 </r>
       <r>   -11.5020     0.2308     2.0236 </r>
       <r>   -11.4242     0.6690     2.0756 </r>
       <r>   -11.3465     1.4443     2.1878 </r>
       <r>   -11.2688     2.3221     2.3683 </r>
       <r>   -11.1910     2.7807     2.5845 </r>
       <r>   -11.1133     2.4803     2.7772 </r>
       <r>   -11.0356     1.6479     2.9053 </r>
       <r>   -10.9579     0.8154     2.9687 </r>
       <r>   -10.8801     0.3004     2.9921 </r>
       <r>   -10.8024     0.0824     2.9985 </r>
       <r>   -10.7247     0.0168     2.9998 </r>
       <r>   -10.6469     0.0026     3.0000 </r>
       <r>   -10.5692     0.0004     3.0000 </r>
       <r>   -10.4915     0.0012     3.0001 </r>
       <r>   -10.4138     0.0085     3.0008 </r>
       <r>   -10.3360     0.0465     3.0044 </r>
       <r>   -10.2583     0.1899     3.0191 </r>
       <r>   -10.1806     0.5768     3.0640 </r>
       <r>   -10.1028     1.3044     3.1654 </r>
       <r>   -10.0251     2.1970     3.3361 </r>
       <r>    -9.9474     2.7562     3.5504 </r>
       <r>    -9.8697     2.5754     3.7505 </r>
       <r>    -9.7919     1.7924     3.8899 </r>
       <r>    -9.7142     0.9291     3.9621 </r>
       <r>    -9.6365     0.3586     3.9900 </r>
       <r>    -9.5587     0.1031     3.9980 </r>
       <r>    -9.4810     0.0220     3.9997 </r>
       <r>    -9.4033     0.0035     4.0000 </r>
       <r>    -9.3256     0.0004     4.0000 </r>
       <r>    -9.2478     0.0000     4.0000 </r>
       <r>    -9.1701     0.0000     4.0000 </r>
       <r>    -9.0924     0.0000     4.0000 </r>
       <r>    -9.0146     0.0000     4.0000 </r>
       <r>    -8.9369     0.0000     4.0000 </r>
       <r>    -8.8592     0.0002     4.0000 </r>
       <r>    -8.7815     0.0022     4.0002 </r>
       <r>    -8.7037     0.0148     4.0013 </r>
       <r>    -8.6260     0.0739     4.0071 </r>
       <r>    -8.5483     0.2754     4.0285 </r>
       <r>    -8.4705     0.7642     4.0879 </r>
       <r>    -8.3928     1.5790     4.2106 </r>
       <r>    -8.3151     2.4300     4.3995 </r>
       <r>    -8.2374     2.7853     4.6160 </r>
       <r>    -8.1596     2.3780     4.8008 </r>
       <r>    -8.0819     1.5122     4.9184 </r>
       <r>    -8.0042     0.7162     4.9740 </r>
       <r>    -7.9264     0.2526     4.9937 </r>
       <r>    -7.8487     0.0663     4.9988 </r>
       <r>    -7.7710     0.0130     4.9998 </r>
       <r>    -7.6932     0.0019     5.0000 </r>
       <r>    -7.6155     0.0002     5.0000 </r>
       <r>    -7.5378     0.0000     5.0000 </r>
       <r>    -7.4601     0.0000     5.0000 </r>
       <r>    -7.3823     0.0000     5.0000 </r>
       <r>    -7.3046     0.0000     5.0000 </r>
       <r>    -7.2269     0.0000     5.0000 </r>
       <r>    -7.1491     0.0002     5.0000 </r>
       <r>    -7.0714     0.0019     5.0002 </r>
       <r>    -6.9937     0.0129     5.0012 </r>
       <r>    -6.9160     0.0661     5.0063 </r>
       <r>    -6.8382     0.2518     5.0259 </r>
       <r>    -6.7605     0.7146     5.0814 </r>
       <r>    -6.6828     1.5099     5.1988 </r>
       <r>    -6.6050     2.3762     5.3835 </r>
       <r>    -6.5273     2.7852     5.6000 </r>
       <r>    -6.4496     2.4317     5.7890 </r>
       <r>    -6.3719     1.5813     5.9119 </r>
       <r>    -6.2941     0.7659     5.9714 </r>
       <r>    -6.2164     0.2762     5.9929 </r>
       <r>    -6.1387     0.0742     5.9987 </r>
       <r>    -6.0609     0.0148     5.9998 </r>
       <r>    -5.9832     0.0022     6.0000 </r>
       <r>    -5.9055     0.0002     6.0000 </r>
       <r>    -5.8278     0.0000     6.0000 </r>
       <r>    -5.7500     0.0000     6.0000 </r>
       <r>    -5.6723     0.0000     6.0000 </r>
       <r>    -5.5946     0.0000     6.0000 </r>
       <r>    -5.5168     0.0000     6.0000 </r>
       <r>    -5.4391     0.0000     6.0000 </r>
       <r>    -5.3614     0.0000     6.0000 </r>
       <r>    -5.2837     0.0000     6.0000 </r>
       <r>    -5.2059     0.0000     6.0000 </r>
       <r>    -5.1282     0.0000     6.0000 </r>
       <r>    -5.0505     0.0000     6.0000 </r>
       <r>    -4.9727     0.0000     6.0000 </r>
       <r>    -4.8950     0.0000     6.0000 </r>
       <r>    -4.8173     0.0000     6.0000 </r>
       <r>    -4.7396     0.0000     6.0000 </r>
       <r>    -4.6618     0.0000     6.0000 </r>
       <r>    -4.5841     0.0000     6.0000 </r>
       <r>    -4.5064     0.0000     6.0000 </r>
       <r>    -4.4286     0.0000     6.0000 </r>
       <r>    -4.3509     0.0000     6.0000 </r>
       <r>    -4.2732     0.0000     6.0000 </r>
       <r>    -4.1955     0.0000     6.0000 </r>
       <r>    -4.1177     0.0000     6.0000 </r>
       <r>    -4.0400     0.0000     6.0000 </r>
       <r>    -3.9623     0.0000     6.0000 </r>
       <r>    -3.8845     0.0000     6.0000 </r>
       <r>    -3.8068     0.0000     6.0000 </r>
       <r>    -3.7291     0.0000     6.0000 </r>
       <r>    -3.6513     0.0000     6.0000 </r>
       <r>    -3.5736     0.0000     6.0000 </r>
       <r>    -3.4959     0.0000     6.0000 </r>
       <r>    -3.4182     0.0000     6.0000 </r>
       <r>    -3.3404     0.0000     6.0000 </r>
       <r>    -3.2627     0.0000     6.0000 </r>
       <r>    -3.1850     0.0000     6.0000 </r>
       <r>    -3.1072     0.0000     6.0000 </r>
       <r>    -3.0295     0.0000     6.0000 </r>
       <r>    -2.9518     0.0000     6.0000 </r>
       <r>    -2.8741     0.0000     6.0000 </r>
       <r>    -2.7963     0.0000     6.0000 </r>
       <r>    -2.7186     0.0000     6.0000 </r>
       <r>    -2.6409     0.0000     6.0000 </r>
       <r>    -2.5631     0.0000     6.0000 </r>
       <r>    -2.4854     0.0000     6.0000 </r>
       <r>    -2.4077     0.0000     6.0000 </r>
       <r>    -2.3300     0.0000     6.0000 </r>
       <r>    -2.2522     0.0000     6.0000 </r>
       <r>    -2.1745     0.0000     6.0000 </r>
       <r>    -2.0968     0.0000     6.0000 </r>
       <r>    -2.0190     0.0000     6.0000 </r>
       <r>    -1.9413     0.0000     6.0000 </r>
       <r>    -1.8636     0.0000     6.0000 </r>
       <r>    -1.7859     0.0000     6.0000 </r>
       <r>    -1.7081     0.0000     6.0000 </r>
       <r>    -1.6304     0.0000     6.0000 </r>
       <r>    -1.5527     0.0000     6.0000 </r>
       <r>    -1.4749     0.0002     6.0000 </r>
       <r>    -1.3972     0.0017     6.0001 </r>
       <r>    -1.3195     0.0118     6.0011 </r>
       <r>    -1.2418     0.0615     6.0058 </r>
       <r>    -1.1640     0.2377     6.0243 </r>
       <r>    -1.0863     0.6842     6.0775 </r>
       <r>    -1.0086     1.4666     6.1915 </r>
       <r>    -0.9308     2.3431     6.3736 </r>
       <r>    -0.8531     2.7996     6.5912 </r>
       <r>    -0.7754     2.5471     6.7892 </r>
       <r>    -0.6977     1.9270     6.9390 </r>
       <r>    -0.6199     1.6162     7.0646 </r>
       <r>    -0.5422     1.9430     7.2156 </r>
       <r>    -0.4645     2.5620     7.4148 </r>
       <r>    -0.3867     2.7965     7.6322 </r>
       <r>    -0.3090     2.3220     7.8126 </r>
       <r>    -0.2313     1.4416     7.9247 </r>
       <r>    -0.1535     0.6670     7.9765 </r>
       <r>    -0.0758     0.2298     7.9944 </r>
       <r>     0.0019     0.0590     7.9990 </r>
       <r>     0.0796     0.0113     7.9999 </r>
       <r>     0.1574     0.0025     8.0001 </r>
       <r>     0.2351     0.0078     8.0007 </r>
       <r>     0.3128     0.0473     8.0043 </r>
       <r>     0.3906     0.2182     8.0213 </r>
       <r>     0.4683     0.7492     8.0795 </r>
       <r>     0.5460     1.9165     8.2285 </r>
       <r>     0.6237     3.6526     8.5124 </r>
       <r>     0.7015     5.1875     8.9156 </r>
       <r>     0.7792     5.4902     9.3424 </r>
       <r>     0.8569     4.3303     9.6790 </r>
       <r>     0.9347     2.5451     9.8768 </r>
       <r>     1.0124     1.1146     9.9634 </r>
       <r>     1.0901     0.3636     9.9917 </r>
       <r>     1.1678     0.0884     9.9986 </r>
       <r>     1.2456     0.0160     9.9998 </r>
       <r>     1.3233     0.0022    10.0000 </r>
       <r>     1.4010     0.0002    10.0000 </r>
       <r>     1.4788     0.0000    10.0000 </r>
       <r>     1.5565     0.0000    10.0000 </r>
       <r>     1.6342     0.0000    10.0000 </r>
       <r>     1.7119     0.0000    10.0000 </r>
       <r>     1.7897     0.0000    10.0000 </r>
       <r>     1.8674     0.0000    10.0000 </r>
       <r>     1.9451     0.0000    10.0000 </r>
       <r>     2.0229     0.0000    10.0000 </r>
       <r>     2.1006     0.0000    10.0000 </r>
       <r>     2.1783     0.0000    10.0000 </r>
       <r>     2.2560     0.0000    10.0000 </r>
       <r>     2.3338     0.0000    10.0000 </r>
       <r>     2.4115     0.0000    10.0000 </r>
       <r>     2.4892     0.0000    10.0000 </r>
       <r>     2.5670     0.0000    10.0000 </r>
       <r>     2.6447     0.0000    10.0000 </r>
       <r>     2.7224     0.0000    10.0000 </r>
      </set>
     </set>
    </array>
   </total>
  </dos>
 </calculation>
 <structure name="finalpos" >
  <crystal>
   <varray name="basis" >
    <v>      10.00000000       0.00000000       0.00000000 </v>
    <v>       0.00000000      10.00000000       0.00000000 </v>
    <v>       0.00000000       0.00000000      10.00000000 </v>
   </varray>
   <i name="volume">   1000.00000000 </i>
   <varray name="rec_basis" >
    <v>       0.10000000       0.00000000       0.00000000 </v>
    <v>       0.00000000       0.10000000       0.00000000 </v>
    <v>       0.00000000       0.00000000       0.10000000 </v>
   </varray>
  </crystal>
  <varray name="positions" >
   <v>       0.50000000       0.59310605       0.62422029 </v>
   <v>       0.50000000       0.40689395       0.62422029 </v>
   <v>       0.50000000       0.59310605       0.37577971 </v>
   <v>       0.50000000       0.40689395       0.37577971 </v>
   <v>       0.50000000       0.50000000       0.56670978 </v>
   <v>       0.50000000       0.50000000       0.43329022 </v>
  </varray>
 </structure>
</modeling>
