   9   9   0   0
  0.1111111E+03  0.1000000E-08  0.1000000E-08  0.1000000E-08  0.5000000E-15
  1.000000000000000E-004
  CAR 
 unknown system                          
      4.53482769    -27.51636113  301     -4.43908785      1.00000000
    -27.516  0.0000E+00  0.0000E+00  0.0000E+00  0.0000E+00
    -27.410  0.0000E+00  0.0000E+00  0.0000E+00  0.0000E+00
    -27.303  0.0000E+00  0.0000E+00  0.0000E+00  0.0000E+00
    -27.196  0.0000E+00  0.0000E+00  0.0000E+00  0.0000E+00
    -27.089  0.0000E+00  0.0000E+00  0.0000E+00  0.0000E+00
    -26.982  0.0000E+00  0.0000E+00  0.0000E+00  0.0000E+00
    -26.875  0.0000E+00  0.0000E+00  0.0000E+00  0.0000E+00
    -26.769  0.0000E+00  0.0000E+00  0.0000E+00  0.0000E+00
    -26.662  0.3247E-15  0.3247E-15  0.3469E-16  0.3469E-16
    -26.555  0.1218E-12  0.1218E-12  0.1305E-13  0.1305E-13
    -26.448  0.2603E-10  0.2603E-10  0.2794E-11  0.2794E-11
    -26.341  0.3175E-08  0.3175E-08  0.3420E-09  0.3420E-09
    -26.234  0.2215E-06  0.2215E-06  0.2400E-07  0.2400E-07
    -26.127  0.8852E-05  0.8852E-05  0.9697E-06  0.9697E-06
    -26.021  0.2031E-03  0.2031E-03  0.2267E-04  0.2267E-04
    -25.914  0.2683E-02  0.2683E-02  0.3093E-03  0.3093E-03
    -25.807  0.2044E-01  0.2044E-01  0.2493E-02  0.2493E-02
    -25.700  0.9004E-01  0.9003E-01  0.1211E-01  0.1211E-01
    -25.593  0.2297E+00  0.2297E+00  0.3665E-01  0.3665E-01
    -25.486  0.3399E+00  0.3399E+00  0.7297E-01  0.7297E-01
    -25.380  0.2919E+00  0.2919E+00  0.1042E+00  0.1042E+00
    -25.273  0.1454E+00  0.1454E+00  0.1197E+00  0.1197E+00
    -25.166  0.4199E-01  0.4199E-01  0.1242E+00  0.1242E+00
    -25.059  0.7017E-02  0.7017E-02  0.1249E+00  0.1249E+00
    -24.952  0.6770E-03  0.6770E-03  0.1250E+00  0.1250E+00
    -24.845  0.3763E-04  0.3763E-04  0.1250E+00  0.1250E+00
    -24.739  0.1202E-05  0.1202E-05  0.1250E+00  0.1250E+00
    -24.632  0.2203E-07  0.2203E-07  0.1250E+00  0.1250E+00
    -24.525  0.2310E-09  0.2310E-09  0.1250E+00  0.1250E+00
    -24.418  0.1384E-11  0.1384E-11  0.1250E+00  0.1250E+00
    -24.311  0.4676E-14  0.4676E-14  0.1250E+00  0.1250E+00
    -24.204  0.0000E+00  0.0000E+00  0.1250E+00  0.1250E+00
    -24.098  0.0000E+00  0.0000E+00  0.1250E+00  0.1250E+00
    -23.991  0.0000E+00  0.0000E+00  0.1250E+00  0.1250E+00
    -23.884  0.0000E+00  0.0000E+00  0.1250E+00  0.1250E+00
    -23.777  0.0000E+00  0.0000E+00  0.1250E+00  0.1250E+00
    -23.670  0.0000E+00  0.0000E+00  0.1250E+00  0.1250E+00
    -23.563  0.0000E+00  0.0000E+00  0.1250E+00  0.1250E+00
    -23.457  0.6495E-16  0.6495E-16  0.1250E+00  0.1250E+00
    -23.350  0.1780E-13  0.1780E-13  0.1250E+00  0.1250E+00
    -23.243  0.4591E-11  0.4590E-11  0.1250E+00  0.1250E+00
    -23.136  0.6756E-09  0.6756E-09  0.1250E+00  0.1250E+00
    -23.029  0.5682E-07  0.5682E-07  0.1250E+00  0.1250E+00
    -22.922  0.2737E-05  0.2736E-05  0.1250E+00  0.1250E+00
    -22.816  0.7561E-04  0.7561E-04  0.1250E+00  0.1250E+00
    -22.709  0.1201E-02  0.1201E-02  0.1251E+00  0.1251E+00
    -22.602  0.1100E-01  0.1100E-01  0.1263E+00  0.1263E+00
    -22.495  0.5822E-01  0.5822E-01  0.1325E+00  0.1325E+00
    -22.388  0.1783E+00  0.1783E+00  0.1516E+00  0.1516E+00
    -22.281  0.3167E+00  0.3167E+00  0.1854E+00  0.1854E+00
    -22.174  0.3264E+00  0.3264E+00  0.2203E+00  0.2203E+00
    -22.068  0.1952E+00  0.1952E+00  0.2411E+00  0.2411E+00
    -21.961  0.6766E-01  0.6767E-01  0.2484E+00  0.2484E+00
    -21.854  0.1358E-01  0.1358E-01  0.2498E+00  0.2498E+00
    -21.747  0.1576E-02  0.1576E-02  0.2500E+00  0.2500E+00
    -21.640  0.1054E-03  0.1054E-03  0.2500E+00  0.2500E+00
    -21.533  0.4055E-05  0.4055E-05  0.2500E+00  0.2500E+00
    -21.427  0.8954E-07  0.8954E-07  0.2500E+00  0.2500E+00
    -21.320  0.1132E-08  0.1132E-08  0.2500E+00  0.2500E+00
    -21.213  0.8184E-11  0.8185E-11  0.2500E+00  0.2500E+00
    -21.106  0.3377E-13  0.3377E-13  0.2500E+00  0.2500E+00
    -20.999  0.0000E+00  0.0000E+00  0.2500E+00  0.2500E+00
    -20.892  0.0000E+00  0.0000E+00  0.2500E+00  0.2500E+00
    -20.786  0.0000E+00  0.0000E+00  0.2500E+00  0.2500E+00
    -20.679  0.0000E+00  0.0000E+00  0.2500E+00  0.2500E+00
    -20.572  0.0000E+00  0.0000E+00  0.2500E+00  0.2500E+00
    -20.465  0.0000E+00  0.0000E+00  0.2500E+00  0.2500E+00
    -20.358  0.0000E+00  0.0000E+00  0.2500E+00  0.2500E+00
    -20.251  0.0000E+00  0.0000E+00  0.2500E+00  0.2500E+00
    -20.145  0.0000E+00  0.0000E+00  0.2500E+00  0.2500E+00
    -20.038  0.0000E+00  0.0000E+00  0.2500E+00  0.2500E+00
    -19.931  0.0000E+00  0.0000E+00  0.2500E+00  0.2500E+00
    -19.824  0.0000E+00  0.0000E+00  0.2500E+00  0.2500E+00
    -19.717  0.0000E+00  0.0000E+00  0.2500E+00  0.2500E+00
    -19.610  0.0000E+00  0.0000E+00  0.2500E+00  0.2500E+00
    -19.504  0.0000E+00  0.0000E+00  0.2500E+00  0.2500E+00
    -19.397  0.0000E+00  0.0000E+00  0.2500E+00  0.2500E+00
    -19.290  0.0000E+00  0.0000E+00  0.2500E+00  0.2500E+00
    -19.183  0.0000E+00  0.0000E+00  0.2500E+00  0.2500E+00
    -19.076  0.9547E-14  0.9547E-14  0.2500E+00  0.2500E+00
    -18.969  0.2614E-11  0.2614E-11  0.2500E+00  0.2500E+00
    -18.863  0.4083E-09  0.4083E-09  0.2500E+00  0.2500E+00
    -18.756  0.3644E-07  0.3644E-07  0.2500E+00  0.2500E+00
    -18.649  0.1862E-05  0.1862E-05  0.2500E+00  0.2500E+00
    -18.542  0.5456E-04  0.5456E-04  0.2500E+00  0.2500E+00
    -18.435  0.9194E-03  0.9193E-03  0.2501E+00  0.2501E+00
    -18.328  0.8927E-02  0.8927E-02  0.2511E+00  0.2511E+00
    -18.222  0.5006E-01  0.5006E-01  0.2564E+00  0.2564E+00
    -18.115  0.1625E+00  0.1625E+00  0.2738E+00  0.2738E+00
    -18.008  0.3058E+00  0.3058E+00  0.3064E+00  0.3064E+00
    -17.901  0.3338E+00  0.3338E+00  0.3421E+00  0.3421E+00
    -17.794  0.2115E+00  0.2115E+00  0.3647E+00  0.3647E+00
    -17.687  0.7771E-01  0.7771E-01  0.3730E+00  0.3730E+00
    -17.580  0.1653E-01  0.1654E-01  0.3748E+00  0.3748E+00
    -17.474  0.2033E-02  0.2034E-02  0.3750E+00  0.3750E+00
    -17.367  0.1442E-03  0.1442E-03  0.3750E+00  0.3750E+00
    -17.260  0.5885E-05  0.5885E-05  0.3750E+00  0.3750E+00
    -17.153  0.1379E-06  0.1379E-06  0.3750E+00  0.3750E+00
    -17.046  0.1850E-08  0.1850E-08  0.3750E+00  0.3750E+00
    -16.939  0.1419E-10  0.1419E-10  0.3750E+00  0.3750E+00
    -16.833  0.6222E-13  0.6222E-13  0.3750E+00  0.3750E+00
    -16.726  0.1299E-15  0.1299E-15  0.3750E+00  0.3750E+00
    -16.619  0.0000E+00  0.0000E+00  0.3750E+00  0.3750E+00
    -16.512  0.0000E+00  0.0000E+00  0.3750E+00  0.3750E+00
    -16.405  0.0000E+00  0.0000E+00  0.3750E+00  0.3750E+00
    -16.298  0.0000E+00  0.0000E+00  0.3750E+00  0.3750E+00
    -16.192  0.0000E+00  0.0000E+00  0.3750E+00  0.3750E+00
    -16.085  0.0000E+00  0.0000E+00  0.3750E+00  0.3750E+00
    -15.978  0.0000E+00  0.0000E+00  0.3750E+00  0.3750E+00
    -15.871  0.0000E+00  0.0000E+00  0.3750E+00  0.3750E+00
    -15.764  0.0000E+00  0.0000E+00  0.3750E+00  0.3750E+00
    -15.657  0.0000E+00  0.0000E+00  0.3750E+00  0.3750E+00
    -15.551  0.0000E+00  0.0000E+00  0.3750E+00  0.3750E+00
    -15.444  0.0000E+00  0.0000E+00  0.3750E+00  0.3750E+00
    -15.337  0.1624E-14  0.1624E-14  0.3750E+00  0.3750E+00
    -15.230  0.5159E-12  0.5158E-12  0.3750E+00  0.3750E+00
    -15.123  0.9532E-10  0.9532E-10  0.3750E+00  0.3750E+00
    -15.016  0.1006E-07  0.1006E-07  0.3750E+00  0.3750E+00
    -14.910  0.6073E-06  0.6073E-06  0.3750E+00  0.3750E+00
    -14.803  0.2102E-04  0.2102E-04  0.3750E+00  0.3750E+00
    -14.696  0.4179E-03  0.4179E-03  0.3750E+00  0.3750E+00
    -14.589  0.4786E-02  0.4786E-02  0.3756E+00  0.3756E+00
    -14.482  0.3163E-01  0.3163E-01  0.3789E+00  0.3789E+00
    -14.375  0.1209E+00  0.1209E+00  0.3919E+00  0.3919E+00
    -14.269  0.2679E+00  0.2679E+00  0.4205E+00  0.4205E+00
    -14.162  0.3443E+00  0.3443E+00  0.4573E+00  0.4573E+00
    -14.055  0.2568E+00  0.2568E+00  0.4847E+00  0.4847E+00
    -13.948  0.1111E+00  0.1111E+00  0.4966E+00  0.4966E+00
    -13.841  0.2784E-01  0.2784E-01  0.4995E+00  0.4995E+00
    -13.734  0.4036E-02  0.4037E-02  0.5000E+00  0.5000E+00
    -13.628  0.3384E-03  0.3385E-03  0.5000E+00  0.5000E+00
    -13.521  0.4157E-04  0.4157E-04  0.5000E+00  0.5000E+00
    -13.414  0.4879E-03  0.4879E-03  0.5001E+00  0.5001E+00
    -13.307  0.5409E-02  0.5409E-02  0.5006E+00  0.5006E+00
    -13.200  0.3465E-01  0.3465E-01  0.5043E+00  0.5043E+00
    -13.093  0.1284E+00  0.1284E+00  0.5181E+00  0.5181E+00
    -12.986  0.2758E+00  0.2758E+00  0.5475E+00  0.5475E+00
    -12.880  0.3435E+00  0.3435E+00  0.5842E+00  0.5842E+00
    -12.773  0.2484E+00  0.2484E+00  0.6108E+00  0.6108E+00
    -12.666  0.1042E+00  0.1042E+00  0.6219E+00  0.6219E+00
    -12.559  0.2531E-01  0.2531E-01  0.6246E+00  0.6246E+00
    -12.452  0.3556E-02  0.3556E-02  0.6250E+00  0.6250E+00
    -12.345  0.2883E-03  0.2883E-03  0.6250E+00  0.6250E+00
    -12.239  0.1346E-04  0.1346E-04  0.6250E+00  0.6250E+00
    -12.132  0.3607E-06  0.3607E-06  0.6250E+00  0.6250E+00
    -12.025  0.5764E-08  0.5764E-08  0.6250E+00  0.6250E+00
    -11.918  0.2138E-07  0.2138E-07  0.6250E+00  0.6250E+00
    -11.811  0.1169E-05  0.1169E-05  0.6250E+00  0.6250E+00
    -11.704  0.3675E-04  0.3675E-04  0.6250E+00  0.6250E+00
    -11.598  0.6639E-03  0.6639E-03  0.6251E+00  0.6251E+00
    -11.491  0.6909E-02  0.6909E-02  0.6258E+00  0.6258E+00
    -11.384  0.4152E-01  0.4152E-01  0.6302E+00  0.6302E+00
    -11.277  0.1444E+00  0.1444E+00  0.6457E+00  0.6457E+00
    -11.170  0.2911E+00  0.2911E+00  0.6768E+00  0.6768E+00
    -11.063  0.3422E+00  0.3422E+00  0.7133E+00  0.7133E+00
    -10.957  0.2471E+00  0.2471E+00  0.7397E+00  0.7397E+00
    -10.850  0.1676E+00  0.1676E+00  0.7576E+00  0.7576E+00
    -10.743  0.2307E+00  0.2307E+00  0.7823E+00  0.7823E+00
    -10.636  0.3359E+00  0.3359E+00  0.8182E+00  0.8182E+00
    -10.529  0.3071E+00  0.3071E+00  0.8510E+00  0.8510E+00
    -10.422  0.1640E+00  0.1640E+00  0.8685E+00  0.8685E+00
    -10.316  0.5079E-01  0.5079E-01  0.8739E+00  0.8739E+00
    -10.209  0.9106E-02  0.9106E-02  0.8749E+00  0.8749E+00
    -10.102  0.9446E-03  0.9446E-03  0.8750E+00  0.8750E+00
     -9.995  0.1046E-03  0.1046E-03  0.8750E+00  0.8750E+00
     -9.888  0.8402E-03  0.8402E-03  0.8751E+00  0.8751E+00
     -9.781  0.8445E-02  0.8445E-02  0.8760E+00  0.8760E+00
     -9.675  0.5002E-01  0.5002E-01  0.8813E+00  0.8813E+00
     -9.568  0.1779E+00  0.1779E+00  0.9003E+00  0.9003E+00
     -9.461  0.3939E+00  0.3939E+00  0.9424E+00  0.9424E+00
     -9.354  0.5696E+00  0.5696E+00  0.1003E+01  0.1003E+01
     -9.247  0.5586E+00  0.5586E+00  0.1063E+01  0.1063E+01
     -9.140  0.3708E+00  0.3708E+00  0.1103E+01  0.1103E+01
     -9.034  0.1613E+00  0.1613E+00  0.1120E+01  0.1120E+01
     -8.927  0.5531E-01  0.5531E-01  0.1126E+01  0.1126E+01
     -8.820  0.7096E-01  0.7096E-01  0.1133E+01  0.1133E+01
     -8.713  0.1897E+00  0.1897E+00  0.1154E+01  0.1154E+01
     -8.606  0.3231E+00  0.3231E+00  0.1188E+01  0.1188E+01
     -8.499  0.3204E+00  0.3204E+00  0.1222E+01  0.1222E+01
     -8.392  0.1844E+00  0.1844E+00  0.1242E+01  0.1242E+01
     -8.286  0.6154E-01  0.6154E-01  0.1249E+01  0.1249E+01
     -8.179  0.1189E-01  0.1189E-01  0.1250E+01  0.1250E+01
     -8.072  0.1327E-02  0.1327E-02  0.1250E+01  0.1250E+01
     -7.965  0.8537E-04  0.8538E-04  0.1250E+01  0.1250E+01
     -7.858  0.3159E-05  0.3159E-05  0.1250E+01  0.1250E+01
     -7.751  0.6708E-07  0.6708E-07  0.1250E+01  0.1250E+01
     -7.645  0.8156E-09  0.8156E-09  0.1250E+01  0.1250E+01
     -7.538  0.5668E-11  0.5668E-11  0.1250E+01  0.1250E+01
     -7.431  0.2273E-13  0.2273E-13  0.1250E+01  0.1250E+01
     -7.324  0.4592E-13  0.4592E-13  0.1250E+01  0.1250E+01
     -7.217  0.1080E-10  0.1080E-10  0.1250E+01  0.1250E+01
     -7.110  0.1450E-08  0.1450E-08  0.1250E+01  0.1250E+01
     -7.004  0.1113E-06  0.1113E-06  0.1250E+01  0.1250E+01
     -6.897  0.4894E-05  0.4894E-05  0.1250E+01  0.1250E+01
     -6.790  0.1235E-03  0.1235E-03  0.1250E+01  0.1250E+01
     -6.683  0.1793E-02  0.1793E-02  0.1250E+01  0.1250E+01
     -6.576  0.1501E-01  0.1501E-01  0.1252E+01  0.1252E+01
     -6.469  0.7260E-01  0.7260E-01  0.1260E+01  0.1260E+01
     -6.363  0.2034E+00  0.2034E+00  0.1281E+01  0.1281E+01
     -6.256  0.3303E+00  0.3303E+00  0.1317E+01  0.1317E+01
     -6.149  0.3114E+00  0.3114E+00  0.1350E+01  0.1350E+01
     -6.042  0.1703E+00  0.1703E+00  0.1368E+01  0.1368E+01
     -5.935  0.5431E-01  0.5431E-01  0.1374E+01  0.1374E+01
     -5.828  0.1362E-01  0.1362E-01  0.1375E+01  0.1375E+01
     -5.722  0.2716E-01  0.2716E-01  0.1378E+01  0.1378E+01
     -5.615  0.1064E+00  0.1064E+00  0.1390E+01  0.1390E+01
     -5.508  0.2511E+00  0.2511E+00  0.1416E+01  0.1416E+01
     -5.401  0.3438E+00  0.3438E+00  0.1453E+01  0.1453E+01
     -5.294  0.2732E+00  0.2732E+00  0.1482E+01  0.1482E+01
     -5.187  0.1260E+00  0.1260E+00  0.1496E+01  0.1496E+01
     -5.081  0.3365E-01  0.3365E-01  0.1499E+01  0.1499E+01
     -4.974  0.5201E-02  0.5201E-02  0.1500E+01  0.1500E+01
     -4.867  0.4639E-03  0.4639E-03  0.1500E+01  0.1500E+01
     -4.760  0.2384E-04  0.2384E-04  0.1500E+01  0.1500E+01
     -4.653  0.7036E-06  0.7036E-06  0.1500E+01  0.1500E+01
     -4.546  0.1191E-07  0.1191E-07  0.1500E+01  0.1500E+01
     -4.440  0.1153E-09  0.1153E-09  0.1500E+01  0.1500E+01
     -4.333  0.6377E-12  0.6377E-12  0.1500E+01  0.1500E+01
     -4.226  0.2078E-14  0.2078E-14  0.1500E+01  0.1500E+01
     -4.119  0.0000E+00  0.0000E+00  0.1500E+01  0.1500E+01
     -4.012  0.0000E+00  0.0000E+00  0.1500E+01  0.1500E+01
     -3.905  0.0000E+00  0.0000E+00  0.1500E+01  0.1500E+01
     -3.798  0.0000E+00  0.0000E+00  0.1500E+01  0.1500E+01
     -3.692  0.0000E+00  0.0000E+00  0.1500E+01  0.1500E+01
     -3.585  0.0000E+00  0.0000E+00  0.1500E+01  0.1500E+01
     -3.478  0.0000E+00  0.0000E+00  0.1500E+01  0.1500E+01
     -3.371  0.0000E+00  0.0000E+00  0.1500E+01  0.1500E+01
     -3.264  0.0000E+00  0.0000E+00  0.1500E+01  0.1500E+01
     -3.157  0.0000E+00  0.0000E+00  0.1500E+01  0.1500E+01
     -3.051  0.0000E+00  0.0000E+00  0.1500E+01  0.1500E+01
     -2.944  0.0000E+00  0.0000E+00  0.1500E+01  0.1500E+01
     -2.837  0.0000E+00  0.0000E+00  0.1500E+01  0.1500E+01
     -2.730  0.0000E+00  0.0000E+00  0.1500E+01  0.1500E+01
     -2.623  0.0000E+00  0.0000E+00  0.1500E+01  0.1500E+01
     -2.516  0.0000E+00  0.0000E+00  0.1500E+01  0.1500E+01
     -2.410  0.0000E+00  0.0000E+00  0.1500E+01  0.1500E+01
     -2.303  0.0000E+00  0.0000E+00  0.1500E+01  0.1500E+01
     -2.196  0.0000E+00  0.0000E+00  0.1500E+01  0.1500E+01
     -2.089  0.0000E+00  0.0000E+00  0.1500E+01  0.1500E+01
     -1.982  0.0000E+00  0.0000E+00  0.1500E+01  0.1500E+01
     -1.875  0.1299E-15  0.1299E-15  0.1500E+01  0.1500E+01
     -1.769  0.4559E-13  0.4559E-13  0.1500E+01  0.1500E+01
     -1.662  0.1074E-10  0.1074E-10  0.1500E+01  0.1500E+01
     -1.555  0.1443E-08  0.1443E-08  0.1500E+01  0.1500E+01
     -1.448  0.1108E-06  0.1108E-06  0.1500E+01  0.1500E+01
     -1.341  0.4875E-05  0.4876E-05  0.1500E+01  0.1500E+01
     -1.234  0.1231E-03  0.1231E-03  0.1500E+01  0.1500E+01
     -1.128  0.1789E-02  0.1789E-02  0.1500E+01  0.1500E+01
     -1.021  0.1500E-01  0.1500E-01  0.1502E+01  0.1502E+01
     -0.914  0.7293E-01  0.7293E-01  0.1510E+01  0.1510E+01
     -0.807  0.2081E+00  0.2081E+00  0.1532E+01  0.1532E+01
     -0.700  0.3626E+00  0.3626E+00  0.1571E+01  0.1571E+01
     -0.593  0.4343E+00  0.4343E+00  0.1617E+01  0.1617E+01
     -0.487  0.4404E+00  0.4404E+00  0.1664E+01  0.1664E+01
     -0.380  0.3982E+00  0.3982E+00  0.1707E+01  0.1707E+01
     -0.273  0.2646E+00  0.2646E+00  0.1735E+01  0.1735E+01
     -0.166  0.1104E+00  0.1104E+00  0.1747E+01  0.1747E+01
     -0.059  0.2725E-01  0.2725E-01  0.1750E+01  0.1750E+01
      0.048  0.3970E-02  0.3970E-02  0.1750E+01  0.1750E+01
      0.154  0.1385E-02  0.1385E-02  0.1750E+01  0.1750E+01
      0.261  0.1141E-01  0.1141E-01  0.1751E+01  0.1751E+01
      0.368  0.7116E-01  0.7116E-01  0.1759E+01  0.1759E+01
      0.475  0.2590E+00  0.2590E+00  0.1787E+01  0.1787E+01
      0.582  0.5510E+00  0.5510E+00  0.1845E+01  0.1845E+01
      0.689  0.6935E+00  0.6935E+00  0.1920E+01  0.1920E+01
      0.796  0.5638E+00  0.5638E+00  0.1980E+01  0.1980E+01
      0.902  0.4712E+00  0.4712E+00  0.2030E+01  0.2030E+01
      1.009  0.6833E+00  0.6833E+00  0.2103E+01  0.2103E+01
      1.116  0.1020E+01  0.1020E+01  0.2212E+01  0.2212E+01
      1.223  0.1126E+01  0.1126E+01  0.2332E+01  0.2332E+01
      1.330  0.8816E+00  0.8816E+00  0.2427E+01  0.2427E+01
      1.437  0.4754E+00  0.4754E+00  0.2477E+01  0.2477E+01
      1.543  0.1693E+00  0.1693E+00  0.2495E+01  0.2495E+01
      1.650  0.4625E-01  0.4625E-01  0.2500E+01  0.2500E+01
      1.757  0.5717E-01  0.5717E-01  0.2507E+01  0.2507E+01
      1.864  0.1927E+00  0.1927E+00  0.2527E+01  0.2527E+01
      1.971  0.4700E+00  0.4700E+00  0.2577E+01  0.2577E+01
      2.078  0.8356E+00  0.8356E+00  0.2667E+01  0.2667E+01
      2.184  0.1163E+01  0.1163E+01  0.2791E+01  0.2791E+01
      2.291  0.1296E+01  0.1296E+01  0.2929E+01  0.2929E+01
      2.398  0.1164E+01  0.1164E+01  0.3054E+01  0.3054E+01
      2.505  0.8745E+00  0.8745E+00  0.3147E+01  0.3147E+01
      2.612  0.5596E+00  0.5596E+00  0.3207E+01  0.3207E+01
      2.719  0.2816E+00  0.2816E+00  0.3237E+01  0.3237E+01
      2.825  0.9746E-01  0.9745E-01  0.3247E+01  0.3247E+01
      2.932  0.2107E-01  0.2107E-01  0.3250E+01  0.3250E+01
      3.039  0.2714E-02  0.2714E-02  0.3250E+01  0.3250E+01
      3.146  0.2041E-03  0.2040E-03  0.3250E+01  0.3250E+01
      3.253  0.8867E-05  0.8866E-05  0.3250E+01  0.3250E+01
      3.360  0.2216E-06  0.2216E-06  0.3250E+01  0.3250E+01
      3.466  0.3176E-08  0.3175E-08  0.3250E+01  0.3250E+01
      3.573  0.2603E-10  0.2603E-10  0.3250E+01  0.3250E+01
      3.680  0.1218E-12  0.1218E-12  0.3250E+01  0.3250E+01
      3.787  0.2598E-15  0.2598E-15  0.3250E+01  0.3250E+01
      3.894  0.0000E+00  0.0000E+00  0.3250E+01  0.3250E+01
      4.001  0.0000E+00  0.0000E+00  0.3250E+01  0.3250E+01
      4.107  0.0000E+00  0.0000E+00  0.3250E+01  0.3250E+01
      4.214  0.0000E+00  0.0000E+00  0.3250E+01  0.3250E+01
      4.321  0.0000E+00  0.0000E+00  0.3250E+01  0.3250E+01
      4.428  0.0000E+00  0.0000E+00  0.3250E+01  0.3250E+01
      4.535  0.0000E+00  0.0000E+00  0.3250E+01  0.3250E+01
