    9    9    8    2
  0.1111111E+03  0.1000000E-08  0.1000000E-08  0.1000000E-08  0.5000000E-15
  1.000000000000000E-004
  CAR 
 unknown system                          
   24    1   26
 
  0.0000000E+00  0.0000000E+00  0.0000000E+00  0.1000000E+01
   1      -25.516361    -25.516359
   2      -22.275441    -22.275440
   3      -17.990600    -17.990599
   4      -14.219282    -14.219281
   5      -12.943329    -12.943329
   6      -11.139547    -11.139546
   7      -10.652244    -10.652244
   8       -9.439282     -9.439281
   9       -9.279661     -9.279661
  10       -8.607772     -8.607772
  11       -6.267335     -6.267335
  12       -5.446168     -5.446168
  13       -0.711681     -0.711683
  14       -0.438807     -0.438806
  15        0.608057      0.608056
  16        0.641604      0.641602
  17        1.025803      1.025798
  18        1.104722      1.104719
  19        1.190785      1.190781
  20        1.276153      1.276148
  21        1.991169      1.991168
  22        2.156547      2.156546
  23        2.180895      2.180893
  24        2.299726      2.299723
  25        2.356899      2.356896
  26        2.534828      2.534824
