       N       E                     dE             d eps       ncg     rms          rms(c)
DAV:   1     0.138970227221E+03    0.13897E+03   -0.63003E+03   136   0.409E+02
DAV:   2    -0.129834556912E+02   -0.15195E+03   -0.14396E+03   156   0.115E+02
DAV:   3    -0.467935895080E+02   -0.33810E+02   -0.33681E+02   150   0.626E+01
DAV:   4    -0.476049739421E+02   -0.81138E+00   -0.81029E+00   136   0.123E+01
DAV:   5    -0.476102474670E+02   -0.52735E-02   -0.52724E-02   152   0.102E+00    0.209E+01
DAV:   6    -0.241134928564E+02    0.23497E+02   -0.55481E+01   146   0.299E+01    0.789E+00
DAV:   7    -0.435023742330E+02   -0.19389E+02   -0.17879E+01   124   0.140E+01    0.441E+00
DAV:   8    -0.477610520387E+02   -0.42587E+01   -0.15449E+00   136   0.508E+00    0.238E+00
DAV:   9    -0.516960179485E+02   -0.39350E+01   -0.22974E+00   120   0.425E+00    0.648E-01
DAV:  10    -0.519410373133E+02   -0.24502E+00   -0.13060E-01   114   0.128E+00    0.353E-01
DAV:  11    -0.519686604331E+02   -0.27623E-01   -0.19422E-02   118   0.629E-01    0.171E-01
DAV:  12    -0.519718873498E+02   -0.32269E-02   -0.30963E-03   136   0.279E-01    0.111E-01
DAV:  13    -0.519865616144E+02   -0.14674E-01   -0.55047E-03   108   0.303E-01    0.755E-02
DAV:  14    -0.519931326098E+02   -0.65710E-02   -0.18774E-03   144   0.182E-01    0.511E-02
DAV:  15    -0.519971256629E+02   -0.39931E-02   -0.57357E-04   144   0.110E-01    0.327E-02
DAV:  16    -0.520007740198E+02   -0.36484E-02   -0.50795E-04   126   0.827E-02    0.175E-02
DAV:  17    -0.520025500003E+02   -0.17760E-02   -0.16196E-04   128   0.502E-02    0.132E-02
DAV:  18    -0.520036503863E+02   -0.11004E-02   -0.70734E-05   120   0.352E-02    0.812E-03
DAV:  19    -0.520041610200E+02   -0.51063E-03   -0.61186E-05   104   0.286E-02    0.483E-03
DAV:  20    -0.520043953542E+02   -0.23433E-03   -0.13978E-05    96   0.167E-02    0.261E-03
DAV:  21    -0.520044887738E+02   -0.93420E-04   -0.69265E-06   112   0.101E-02
   1 F= -.52004489E+02 E0= -.52004489E+02  d E =-.520045E+02  mag=    -0.0001
       N       E                     dE             d eps       ncg     rms          rms(c)
DAV:   1    -0.519601813622E+02    0.44214E-01   -0.50017E+00   112   0.121E+01    0.642E-01
DAV:   2    -0.519644111107E+02   -0.42297E-02   -0.16503E-01   136   0.201E+00    0.366E-01
DAV:   3    -0.519616891768E+02    0.27219E-02   -0.63447E-03   152   0.416E-01    0.169E-01
DAV:   4    -0.519610879135E+02    0.60126E-03   -0.17598E-03   128   0.227E-01    0.480E-02
DAV:   5    -0.519611043027E+02   -0.16389E-04   -0.27924E-04   144   0.914E-02
   2 F= -.51961104E+02 E0= -.51961104E+02  d E =0.433845E-01  mag=     0.0000
       N       E                     dE             d eps       ncg     rms          rms(c)
DAV:   1    -0.520077648667E+02   -0.46677E-01   -0.28553E+00   128   0.912E+00    0.475E-01
DAV:   2    -0.520113795335E+02   -0.36147E-02   -0.96478E-02   140   0.152E+00    0.290E-01
DAV:   3    -0.520100449856E+02    0.13345E-02   -0.38026E-03   128   0.315E-01    0.130E-01
DAV:   4    -0.520099109549E+02    0.13403E-03   -0.91308E-04   144   0.161E-01    0.409E-02
DAV:   5    -0.520099079877E+02    0.29672E-05   -0.15979E-04   128   0.679E-02
   3 F= -.52009908E+02 E0= -.52009908E+02  d E =-.541921E-02  mag=     0.0000
       N       E                     dE             d eps       ncg     rms          rms(c)
DAV:   1    -0.520074806299E+02    0.24303E-02   -0.59053E-01   128   0.426E+00    0.263E-01
DAV:   2    -0.520079249687E+02   -0.44434E-03   -0.21169E-02   128   0.749E-01    0.199E-01
DAV:   3    -0.520072075461E+02    0.71742E-03   -0.30244E-03   128   0.286E-01    0.772E-02
DAV:   4    -0.520070405754E+02    0.16697E-03   -0.50714E-04   144   0.116E-01    0.339E-02
DAV:   5    -0.520070281052E+02    0.12470E-04   -0.19155E-04   112   0.737E-02
   4 F= -.52007028E+02 E0= -.52007028E+02  d E =0.287988E-02  mag=     0.0000
       N       E                     dE             d eps       ncg     rms          rms(c)
DAV:   1    -0.520122031582E+02   -0.51626E-02   -0.20021E-01   112   0.249E+00    0.148E-01
DAV:   2    -0.520125859794E+02   -0.38282E-03   -0.71687E-03   124   0.441E-01    0.116E-01
DAV:   3    -0.520124561184E+02    0.12986E-03   -0.86303E-04   144   0.155E-01    0.485E-02
DAV:   4    -0.520124930497E+02   -0.36931E-04   -0.20585E-04   128   0.722E-02
   5 F= -.52012493E+02 E0= -.52012493E+02  d E =-.258506E-02  mag=     0.0000
       N       E                     dE             d eps       ncg     rms          rms(c)
DAV:   1    -0.520133241061E+02   -0.86799E-03   -0.34463E-01   104   0.318E+00    0.132E-01
DAV:   2    -0.520135072657E+02   -0.18316E-03   -0.59118E-03   160   0.386E-01    0.753E-02
DAV:   3    -0.520134182507E+02    0.89015E-04   -0.45035E-04   128   0.106E-01
   6 F= -.52013418E+02 E0= -.52013418E+02  d E =-.925201E-03  mag=     0.0000
       N       E                     dE             d eps       ncg     rms          rms(c)
DAV:   1    -0.520135885057E+02   -0.81240E-04   -0.29943E-02   128   0.936E-01    0.351E-02
DAV:   2    -0.520136219624E+02   -0.33457E-04   -0.57461E-04   144   0.120E-01
   7 F= -.52013622E+02 E0= -.52013622E+02  d E =-.112891E-02  mag=     0.0000
       N       E                     dE             d eps       ncg     rms          rms(c)
DAV:   1    -0.520139771731E+02   -0.38867E-03   -0.12257E-01   112   0.186E+00    0.642E-02
DAV:   2    -0.520140944604E+02   -0.11729E-03   -0.20235E-03   144   0.220E-01    0.419E-02
DAV:   3    -0.520140684132E+02    0.26047E-04   -0.60802E-05   112   0.438E-02
   8 F= -.52014068E+02 E0= -.52014068E+02  d E =-.446451E-03  mag=     0.0000
