 vasp.5.2.12 11Nov11 complex                                                    
  
 executed on             LinuxIFC date 2012.11.01  17:30:51
 running on    1 nodes
 distr:  one band on    1 nodes,    1 groups


--------------------------------------------------------------------------------------------------------


 INCAR:
 POTCAR:   PAW_PBE H 15Jun2001                    
 POTCAR:   PAW_PBE C 08Apr2002                    
 POTCAR:   PAW_PBE O 08Apr2002                    
 POTCAR:   PAW_PBE N 08Apr2002                    
 POTCAR:   PAW_PBE H 15Jun2001                    
   VRHFIN =H: ultrasoft test                                                    
   LEXCH  = PE                                                                  
   EATOM  =    12.4884 eV,     .9179 Ry                                         
                                                                                
   TITEL  = PAW_PBE H 15Jun2001                                                 
   LULTRA =        F    use ultrasoft PP ?                                      
   IUNSCR =        0    unscreen: 0-lin 1-nonlin 2-no                           
   RPACOR =     .000    partial core radius                                     
   POMASS =    1.000; ZVAL   =    1.000    mass and valenz                      
   RCORE  =    1.100    outmost cutoff radius                                   
   RWIGS  =     .700; RWIGS  =     .370    wigner-seitz radius (au A)           
   ENMAX  =  250.000; ENMIN  =  200.000 eV                                      
   RCLOC  =     .701    cutoff for local pot                                    
   LCOR   =        T    correct aug charges                                     
   LPAW   =        T    paw PP                                                  
   EAUG   =  400.000                                                            
   RMAX   =    2.174    core radius for proj-oper                               
   RAUG   =    1.200    factor for augmentation sphere                          
   RDEP   =    1.112    radius for radial grids                                 
   QCUT   =   -5.749; QGAM   =   11.498    optimization parameters              
                                                                                
   Description                                                                  
     l     E      TYP  RCUT    TYP  RCUT                                        
     0   .000     23  1.100                                                     
     0   .500     23  1.100                                                     
     1  -.300     23  1.100                                                     
  local pseudopotential read in
  atomic valenz-charges read in
  non local Contribution for L=           0  read in
    real space projection operators read in
  non local Contribution for L=           0  read in
    real space projection operators read in
  non local Contribution for L=           1  read in
    real space projection operators read in
    PAW grid and wavefunctions read in
 
   number of l-projection  operators is LMAX  =           3
   number of lm-projection operators is LMMAX =           5
 
 POTCAR:   PAW_PBE C 08Apr2002                    
   VRHFIN =C: s2p2                                                              
   LEXCH  = PE                                                                  
   EATOM  =   147.1560 eV,   10.8157 Ry                                         
                                                                                
   TITEL  = PAW_PBE C 08Apr2002                                                 
   LULTRA =        F    use ultrasoft PP ?                                      
   IUNSCR =        0    unscreen: 0-lin 1-nonlin 2-no                           
   RPACOR =     .000    partial core radius                                     
   POMASS =   12.011; ZVAL   =    4.000    mass and valenz                      
   RCORE  =    1.500    outmost cutoff radius                                   
   RWIGS  =    1.630; RWIGS  =     .863    wigner-seitz radius (au A)           
   ENMAX  =  400.000; ENMIN  =  300.000 eV                                      
   ICORE  =        2    local potential                                         
   LCOR   =        T    correct aug charges                                     
   LPAW   =        T    paw PP                                                  
   EAUG   =  644.873                                                            
   DEXC   =     .000                                                            
   RMAX   =    2.266    core radius for proj-oper                               
   RAUG   =    1.300    factor for augmentation sphere                          
   RDEP   =    1.501    radius for radial grids                                 
   RDEPT  =    1.300    core radius for aug-charge                              
   QCUT   =   -5.516; QGAM   =   11.032    optimization parameters              
                                                                                
   Description                                                                  
     l     E      TYP  RCUT    TYP  RCUT                                        
     0   .000     23  1.200                                                     
     0   .000     23  1.200                                                     
     1   .000     23  1.500                                                     
     1  2.500     23  1.500                                                     
     2   .000      7  1.500                                                     
  local pseudopotential read in
  atomic valenz-charges read in
  non local Contribution for L=           0  read in
    real space projection operators read in
  non local Contribution for L=           0  read in
    real space projection operators read in
  non local Contribution for L=           1  read in
    real space projection operators read in
  non local Contribution for L=           1  read in
    real space projection operators read in
    PAW grid and wavefunctions read in
 
   number of l-projection  operators is LMAX  =           4
   number of lm-projection operators is LMMAX =           8
 
 POTCAR:   PAW_PBE O 08Apr2002                    
   VRHFIN =O: s2p4                                                              
   LEXCH  = PE                                                                  
   EATOM  =   432.3788 eV,   31.7789 Ry                                         
                                                                                
   TITEL  = PAW_PBE O 08Apr2002                                                 
   LULTRA =        F    use ultrasoft PP ?                                      
   IUNSCR =        0    unscreen: 0-lin 1-nonlin 2-no                           
   RPACOR =     .000    partial core radius                                     
   POMASS =   16.000; ZVAL   =    6.000    mass and valenz                      
   RCORE  =    1.520    outmost cutoff radius                                   
   RWIGS  =    1.550; RWIGS  =     .820    wigner-seitz radius (au A)           
   ENMAX  =  400.000; ENMIN  =  300.000 eV                                      
   ICORE  =        2    local potential                                         
   LCOR   =        T    correct aug charges                                     
   LPAW   =        T    paw PP                                                  
   EAUG   =  605.392                                                            
   DEXC   =     .000                                                            
   RMAX   =    2.264    core radius for proj-oper                               
   RAUG   =    1.300    factor for augmentation sphere                          
   RDEP   =    1.550    radius for radial grids                                 
   QCUT   =   -5.520; QGAM   =   11.041    optimization parameters              
                                                                                
   Description                                                                  
     l     E      TYP  RCUT    TYP  RCUT                                        
     0   .000     23  1.200                                                     
     0  -.700     23  1.200                                                     
     1   .000     23  1.520                                                     
     1   .600     23  1.520                                                     
     2   .000      7  1.500                                                     
  local pseudopotential read in
  atomic valenz-charges read in
  non local Contribution for L=           0  read in
    real space projection operators read in
  non local Contribution for L=           0  read in
    real space projection operators read in
  non local Contribution for L=           1  read in
    real space projection operators read in
  non local Contribution for L=           1  read in
    real space projection operators read in
    PAW grid and wavefunctions read in
 
   number of l-projection  operators is LMAX  =           4
   number of lm-projection operators is LMMAX =           8
 
 POTCAR:   PAW_PBE N 08Apr2002                    
   VRHFIN =N: s2p3                                                              
   LEXCH  = PE                                                                  
   EATOM  =   264.5486 eV,   19.4438 Ry                                         
                                                                                
   TITEL  = PAW_PBE N 08Apr2002                                                 
   LULTRA =        F    use ultrasoft PP ?                                      
   IUNSCR =        0    unscreen: 0-lin 1-nonlin 2-no                           
   RPACOR =     .000    partial core radius                                     
   POMASS =   14.001; ZVAL   =    5.000    mass and valenz                      
   RCORE  =    1.500    outmost cutoff radius                                   
   RWIGS  =    1.400; RWIGS  =     .741    wigner-seitz radius (au A)           
   ENMAX  =  400.000; ENMIN  =  300.000 eV                                      
   ICORE  =        2    local potential                                         
   LCOR   =        T    correct aug charges                                     
   LPAW   =        T    paw PP                                                  
   EAUG   =  627.112                                                            
   DEXC   =     .000                                                            
   RMAX   =    2.247    core radius for proj-oper                               
   RAUG   =    1.300    factor for augmentation sphere                          
   RDEP   =    1.514    radius for radial grids                                 
   QCUT   =   -5.562; QGAM   =   11.124    optimization parameters              
                                                                                
   Description                                                                  
     l     E      TYP  RCUT    TYP  RCUT                                        
     0   .000     23  1.200                                                     
     0   .000     23  1.200                                                     
     1   .000     23  1.500                                                     
     1   .700     23  1.500                                                     
     2   .000      7  1.500                                                     
  local pseudopotential read in
  atomic valenz-charges read in
  non local Contribution for L=           0  read in
    real space projection operators read in
  non local Contribution for L=           0  read in
    real space projection operators read in
  non local Contribution for L=           1  read in
    real space projection operators read in
  non local Contribution for L=           1  read in
    real space projection operators read in
    PAW grid and wavefunctions read in
 
   number of l-projection  operators is LMAX  =           4
   number of lm-projection operators is LMMAX =           8
 
 PAW_PBE H 15Jun2001                    :
 energy of atom  1       EATOM=  -12.4884
 kinetic energy error for atom=    0.0203 (will be added to EATOM!!)
 PAW_PBE C 08Apr2002                    :
 energy of atom  2       EATOM= -147.1560
 kinetic energy error for atom=    0.0854 (will be added to EATOM!!)
 PAW_PBE O 08Apr2002                    :
 energy of atom  3       EATOM= -432.3788
 kinetic energy error for atom=    0.3782 (will be added to EATOM!!)
 PAW_PBE N 08Apr2002                    :
 energy of atom  4       EATOM= -264.5486
 kinetic energy error for atom=    0.2274 (will be added to EATOM!!)
 
 
 POSCAR:  H  C  O  N                             
  positions in cartesian coordinates
  No initial velocities read in
 exchange correlation table for  LEXCH =        8
   RHO(1)=    0.500       N(1)  =     2000
   RHO(2)=  100.500       N(2)  =     4000
 


--------------------------------------------------------------------------------------------------------


 ion  position               nearest neighbor table
   1  0.573  0.342  0.507-   9 1.01
   2  0.302  0.583  0.473-   7 1.09
   3  0.346  0.421  0.413-   7 1.09
   4  0.339  0.453  0.587-   7 1.09
   5  0.698  0.462  0.501-   9 1.01
   6  0.510  0.540  0.490-   8 1.23   9 1.37   7 1.51
   7  0.365  0.496  0.490-   2 1.09   3 1.09   4 1.09   6 1.51
   8  0.545  0.658  0.491-   6 1.23
   9  0.601  0.437  0.485-   1 1.01   5 1.01   6 1.37
 
  LATTYP: Found a simple cubic cell.
 ALAT       =    10.0000000000
  
  Lattice vectors:
  
 A1 = (  10.0000000000,   0.0000000000,   0.0000000000)
 A2 = (   0.0000000000,  10.0000000000,   0.0000000000)
 A3 = (   0.0000000000,   0.0000000000,  10.0000000000)
 Subroutine PRICEL returns:
 Original cell was already a primitive cell.
 

Analysis of symmetry for initial positions (statically):

 Routine SETGRP: Setting up the symmetry group for a 
 simple cubic supercell.


 Subroutine GETGRP returns: Found  1 space group operations
 (whereof  1 operations were pure point group operations)
 out of a pool of 48 trial point group operations.


The static configuration has the point symmetry C_1 .

Analysis of symmetry for dynamics (positions and initial velocities):

 Subroutine DYNSYM returns: Found  1 space group operations
 (whereof  1 operations were pure point group operations)
 out of a pool of  1 trial space group operations
 (whereof  1 operations were pure point group operations)
 and found also     1 'primitive' translations


The dynamic configuration has the point symmetry C_1 .

Analysis of magnetic symmetry:

 Subroutine MAGSYM returns: Found  1 space group operations
 (whereof  1 operations were pure point group operations)
 out of a pool of  1 trial space group operations
 (whereof  1 operations were pure point group operations)
 and found also     1 'primitive' translations


The magnetic configuration has the point symmetry C_1 .
 
 
 KPOINTS: KPOINTS created by Atomic Simulation Env

Automatic generation of k-mesh.
 
 Subroutine IBZKPT returns following result:
 ===========================================
 
 Found      1 irreducible k-points:
 
 Following reciprocal coordinates:
            Coordinates               Weight
  0.000000  0.000000  0.000000      1.000000
 
 Following cartesian coordinates:
            Coordinates               Weight
  0.000000  0.000000  0.000000      1.000000
 


--------------------------------------------------------------------------------------------------------




 Dimension of arrays:
   k-points           NKPTS =      1   k-points in BZ     NKDIM =      1   number of bands    NBANDS=     26
   number of dos      NEDOS =    301   number of ions     NIONS =      9
   non local maximal  LDIM  =      4   non local SUM 2l+1 LMDIM =      8
   total plane-waves  NPLWV = 110592
   max r-space proj   IRMAX =      1   max aug-charges    IRDMAX=   1634
   dimension x,y,z NGX =    48 NGY =   48 NGZ =   48
   dimension x,y,z NGXF=    96 NGYF=   96 NGZF=   96
   support grid    NGXF=    96 NGYF=   96 NGZF=   96
   ions per type =               5   2   1   1
 NGX,Y,Z   is equivalent  to a cutoff of   7.98,  7.98,  7.98 a.u.
 NGXF,Y,Z  is equivalent  to a cutoff of  15.96, 15.96, 15.96 a.u.


 I would recommend the setting:
   dimension x,y,z NGX =    46 NGY =   46 NGZ =   46
 SYSTEM =  unknown system                          
 POSCAR =   H  C  O  N                             

 Startparameter for this run:
   NWRITE =      2    write-flag & timer
   PREC   = normal    normal or accurate (medium, high low for compatibility)
   ISTART =      0    job   : 0-new  1-cont  2-samecut
   ICHARG =      2    charge: 1-file 2-atom 10-const
   ISPIN  =      2    spin polarized calculation?
   LNONCOLLINEAR =      F non collinear calculations
   LSORBIT =      F    spin-orbit coupling
   INIWAV =      1    electr: 0-lowe 1-rand  2-diag
   LASPH  =      F    aspherical Exc in radial PAW
   METAGGA=      F    non-selfconsistent MetaGGA calc.

 Electronic Relaxation 1
   ENCUT  =  350.0 eV  25.72 Ry    5.07 a.u.  15.25 15.25 15.25*2*pi/ulx,y,z
   ENINI  =  350.0     initial cutoff
   ENAUG  =  644.9 eV  augmentation charge cutoff
   NELM   =     60;   NELMIN=  2; NELMDL= -5     # of ELM steps 
   EDIFF  = 0.1E-03   stopping-criterion for ELM
   LREAL  =      F    real-space projection
   NLSPLINE    = F    spline interpolate recip. space projectors
   LCOMPAT=      F    compatible to vasp.4.4
   GGA_COMPAT  = T    GGA compatible to vasp.4.4-vasp.4.6
   LMAXPAW     = -100 max onsite density
   LMAXMIX     =    2 max onsite mixed and CHGCAR
   VOSKOWN=      0    Vosko Wilk Nusair interpolation
   ROPT   =    0.00000   0.00000   0.00000   0.00000
 Ionic relaxation
   EDIFFG = 0.1E-02   stopping-criterion for IOM
   NSW    =      8    number of steps for IOM
   NBLOCK =      1;   KBLOCK =      8    inner block; outer block 
   IBRION =      2    ionic relax: 0-MD 1-quasi-New 2-CG
   NFREE  =      1    steps in history (QN), initial steepest desc. (CG)
   ISIF   =      2    stress and relaxation
   IWAVPR =     11    prediction:  0-non 1-charg 2-wave 3-comb
   ISYM   =      2    0-nonsym 1-usesym 2-fastsym
   LCORR  =      T    Harris-Foulkes like correction to forces

   POTIM  = 0.5000    time-step for ionic-motion
   TEIN   =    0.0    initial temperature
   TEBEG  =    0.0;   TEEND  =   0.0 temperature during run
   SMASS  =  -3.00    Nose mass-parameter (am)
   estimated Nose-frequenzy (Omega)   =  0.10E-29 period in steps =****** mass=  -0.229E-26a.u.
   SCALEE = 1.0000    scale energy and forces
   NPACO  =    256;   APACO  = 16.0  distance and # of slots for P.C.
   PSTRESS=    0.0 pullay stress

  Mass of Ions in am
   POMASS =   1.00 12.01 16.00 14.00
  Ionic Valenz
   ZVAL   =   1.00  4.00  6.00  5.00
  Atomic Wigner-Seitz radii
   RWIGS  =  -1.00 -1.00 -1.00 -1.00
  virtual crystal weights 
   VCA    =   1.00  1.00  1.00  1.00
   NELECT =      24.0000    total number of electrons
   NUPDOWN=      -1.0000    fix difference up-down

 DOS related values:
   EMIN   =  10.00;   EMAX   =-10.00  energy-range for DOS
   EFERMI =   0.00
   ISMEAR =     0;   SIGMA  =   0.20  broadening in eV -4-tet -1-fermi 0-gaus

 Electronic relaxation 2 (details)
   IALGO  =     38    algorithm
   LDIAG  =      T    sub-space diagonalisation (order eigenvalues)
   LSUBROT=      T    optimize rotation matrix (better conditioning)
   TURBO    =      0    0=normal 1=particle mesh
   IRESTART =      0    0=no restart 2=restart with 2 vectors
   NREBOOT  =      0    no. of reboots
   NMIN     =      0    reboot dimension
   EREF     =   0.00    reference energy to select bands
   IMIX   =      4    mixing-type and parameters
     AMIX     =   0.40;   BMIX     =  1.00
     AMIX_MAG =   1.60;   BMIX_MAG =  1.00
     AMIN     =   0.10
     WC   =   100.;   INIMIX=   1;  MIXPRE=   1

 Intra band minimization:
   WEIMIN = 0.0010     energy-eigenvalue tresh-hold
   EBREAK =  0.96E-06  absolut break condition
   DEPER  =   0.30     relativ break condition  

   TIME   =   0.40     timestep for ELM

  volume/ion in A,a.u.               =     111.11       749.81
  Fermi-wavevector in a.u.,A,eV,Ry     =   0.472221  0.892368  3.033999  0.222993
  Thomas-Fermi vector in A             =   1.465300
 
 Write flags
   LWAVE  =      T    write WAVECAR
   LCHARG =      T    write CHGCAR
   LVTOT  =      F    write LOCPOT, total local potential
   LVHAR  =      F    write LOCPOT, Hartree potential only
   LELF   =      F    write electronic localiz. function (ELF)
   LORBIT =      0    0 simple, 1 ext, 2 COOP (PROOUT)


 Dipole corrections
   LMONO  =      F    monopole corrections only (constant potential shift)
   LDIPOL =      F    correct potential (dipole corrections)
   IDIPOL =      0    1-x, 2-y, 3-z, 4-all directions 
   EPSILON=  1.0000000 bulk dielectric constant

 Exchange correlation treatment:
   GGA     =    --    GGA type
   LEXCH   =     8    internal setting for exchange type
   VOSKOWN=      0    Vosko Wilk Nusair interpolation
   LHFCALC =     F    Hartree Fock is set to
   LHFONE  =     F    Hartree Fock one center treatment
   AEXX    =    0.0000 exact exchange contribution

 Linear response parameters
   LEPSILON=     F    determine dielectric tensor
   LRPA    =     F    only Hartree local field effects (RPA)
   LNABLA  =     F    use nabla operator in PAW spheres
   LVEL    =     F    velocity operator in full k-point grid
   LINTERFAST=   F  fast interpolation
   KINTER  =     0    interpolate to denser k-point grid
   CSHIFT  =0.1000    complex shift for real part using Kramers Kronig
   OMEGAMAX=  -1.0    maximum frequency
   RTIME   =    0.100 relaxation time in fs

 Orbital magnetization related:
   ORBITALMAG=     F  switch on orbital magnetization
   LCHIMAG   =     F  perturbation theory with respect to B field
   DQ        =  0.001000  dq finite difference perturbation B field



--------------------------------------------------------------------------------------------------------


 conjugate gradient relaxation of ions
 charge density and potential will be updated during run
 spin polarized calculation
 Variant of blocked Davidson
 Davidson routine will perform the subspace rotation
 perform sub-space diagonalisation
    after iterative eigenvector-optimisation
 modified Broyden-mixing scheme, WC =      100.0
 initial mixing is a Kerker type mixing with AMIX =  0.4000 and BMIX =      1.0000
 Hartree-type preconditioning will be used
 using additional bands           14
 reciprocal scheme for non local part
 calculate Harris-corrections to forces 
   (improved forces if not selfconsistent)
 use gradient corrections 
 use of overlap-Matrix (Vanderbilt PP)
 Gauss-broadening in eV      SIGMA  =   0.20


--------------------------------------------------------------------------------------------------------


  energy-cutoff  :      350.00
  volume of cell :     1000.00
      direct lattice vectors                 reciprocal lattice vectors
    10.000000000  0.000000000  0.000000000     0.100000000  0.000000000  0.000000000
     0.000000000 10.000000000  0.000000000     0.000000000  0.100000000  0.000000000
     0.000000000  0.000000000 10.000000000     0.000000000  0.000000000  0.100000000

  length of vectors
    10.000000000 10.000000000 10.000000000     0.100000000  0.100000000  0.100000000


 
 k-points in units of 2pi/SCALE and weight: KPOINTS created by Atomic Simulation Env
   0.00000000  0.00000000  0.00000000       1.000
 
 k-points in reciprocal lattice and weights: KPOINTS created by Atomic Simulation Env
   0.00000000  0.00000000  0.00000000       1.000
 
 position of ions in fractional coordinates (direct lattice) 
   0.57300000  0.34243635  0.50708780
   0.30248190  0.58335345  0.47254590
   0.34612060  0.42093425  0.41292500
   0.33899350  0.45256055  0.58707500
   0.69751810  0.46170385  0.50128020
   0.50992060  0.53984015  0.48966870
   0.36505730  0.49599475  0.49007920
   0.54465940  0.65756365  0.49089700
   0.60075660  0.43700755  0.48520260
 
 position of ions in cartesian coordinates  (Angst):
   5.73000000  3.42436350  5.07087800
   3.02481900  5.83353450  4.72545900
   3.46120600  4.20934250  4.12925000
   3.38993500  4.52560550  5.87075000
   6.97518100  4.61703850  5.01280200
   5.09920600  5.39840150  4.89668700
   3.65057300  4.95994750  4.90079200
   5.44659400  6.57563650  4.90897000
   6.00756600  4.37007550  4.85202600
 


--------------------------------------------------------------------------------------------------------


 k-point  1 :  0.00000.00000.0000  plane waves:   14795

 maximum and minimum number of plane-waves per node :     14795    14795

 maximum number of plane-waves:     14795
 maximum index in each direction: 
   IXMAX=   15   IYMAX=   15   IZMAX=   15
   IXMIN=  -15   IYMIN=  -15   IZMIN=  -15

 WARNING: aliasing errors must be expected set NGX to  62 to avoid them
 WARNING: aliasing errors must be expected set NGY to  62 to avoid them
 WARNING: aliasing errors must be expected set NGZ to  62 to avoid them
 aliasing errors are usually negligible using standard VASP settings
 and one can safely disregard these warnings

 serial   3D FFT for wavefunctions
 parallel 3D FFT for charge:
    minimum data exchange during FFTs selected (reduces bandwidth)


 total amount of memory used by VASP on root node   174395. kBytes
========================================================================

   base      :      30000. kBytes
   nonl-proj :       5918. kBytes
   fftplans  :      30736. kBytes
   grid      :      95330. kBytes
   one-center:         55. kBytes
   wavefun   :      12356. kBytes
 
 Broyden mixing: mesh for mixing (old mesh)
   NGX = 31   NGY = 31   NGZ = 31
  (NGX  = 96   NGY  = 96   NGZ  = 96)
  gives a total of  29791 points

 initial charge density was supplied:
 charge density of overlapping atoms calculated
 number of electron      24.0000000 magnetization       9.0000000
 keeping initial charge density in first step


--------------------------------------------------------------------------------------------------------


 Maximum index for augmentation-charges         1382 (set IRDMAX)


--------------------------------------------------------------------------------------------------------


 First call to EWALD:  gamma=   0.177
 Maximum number of real-space cells 3x 3x 3
 Maximum number of reciprocal cells 3x 3x 3

    FEWALD:  cpu time    0.00: real time    0.00


----------------------------------------- Iteration    1(   1)  ---------------------------------------


    POTLOK:  cpu time    3.53: real time    3.53
    SETDIJ:  cpu time    0.10: real time    0.10
     EDDAV:  cpu time    5.81: real time    5.82
       DOS:  cpu time    0.00: real time    0.00
    --------------------------------------------
      LOOP:  cpu time    9.44: real time    9.46

 eigenvalue-minimisations  :   136
 total energy-change (2. order) : 0.1389702E+03  (-0.6300306E+03)
 number of electron      24.0000000 magnetization       9.0000000
 augmentation part       24.0000000 magnetization       9.0000000

 Free energy of the ion-electron system (eV)
  ---------------------------------------------------
  alpha Z        PSCENC =         2.34244495
  Ewald energy   TEWEN  =       716.09946382
  -1/2 Hartree   DENC   =     -1496.85493670
  -exchange  EXHF       =         0.00000000
  -V(xc)+E(xc)   XCENC  =        88.91437461
  PAW double counting   =       435.82555033     -441.36928505
  entropy T*S    EENTRO =        -0.05835248
  eigenvalues    EBANDS =      -218.73279854
  atomic energy  EATOM  =      1052.80376628
  ---------------------------------------------------
  free energy    TOTEN  =       138.97022722 eV

  energy without entropy =      139.02857970  energy(sigma->0) =      138.99940346


--------------------------------------------------------------------------------------------------------




----------------------------------------- Iteration    1(   2)  ---------------------------------------


     EDDAV:  cpu time    8.18: real time    8.18
       DOS:  cpu time    0.00: real time    0.00
    --------------------------------------------
      LOOP:  cpu time    8.18: real time    8.19

 eigenvalue-minimisations  :   156
 total energy-change (2. order) :-0.1519537E+03  (-0.1439624E+03)
 number of electron      24.0000000 magnetization       9.0000000
 augmentation part       24.0000000 magnetization       9.0000000

 Free energy of the ion-electron system (eV)
  ---------------------------------------------------
  alpha Z        PSCENC =         2.34244495
  Ewald energy   TEWEN  =       716.09946382
  -1/2 Hartree   DENC   =     -1496.85493670
  -exchange  EXHF       =         0.00000000
  -V(xc)+E(xc)   XCENC  =        88.91437461
  PAW double counting   =       435.82555033     -441.36928505
  entropy T*S    EENTRO =         0.00000000
  eigenvalues    EBANDS =      -370.74483393
  atomic energy  EATOM  =      1052.80376628
  ---------------------------------------------------
  free energy    TOTEN  =       -12.98345569 eV

  energy without entropy =      -12.98345569  energy(sigma->0) =      -12.98345569


--------------------------------------------------------------------------------------------------------




----------------------------------------- Iteration    1(   3)  ---------------------------------------


     EDDAV:  cpu time    7.98: real time    7.98
       DOS:  cpu time    0.00: real time    0.00
    --------------------------------------------
      LOOP:  cpu time    7.98: real time    8.04

 eigenvalue-minimisations  :   150
 total energy-change (2. order) :-0.3381013E+02  (-0.3368076E+02)
 number of electron      24.0000000 magnetization       9.0000000
 augmentation part       24.0000000 magnetization       9.0000000

 Free energy of the ion-electron system (eV)
  ---------------------------------------------------
  alpha Z        PSCENC =         2.34244495
  Ewald energy   TEWEN  =       716.09946382
  -1/2 Hartree   DENC   =     -1496.85493670
  -exchange  EXHF       =         0.00000000
  -V(xc)+E(xc)   XCENC  =        88.91437461
  PAW double counting   =       435.82555033     -441.36928505
  entropy T*S    EENTRO =         0.00000000
  eigenvalues    EBANDS =      -404.55496775
  atomic energy  EATOM  =      1052.80376628
  ---------------------------------------------------
  free energy    TOTEN  =       -46.79358951 eV

  energy without entropy =      -46.79358951  energy(sigma->0) =      -46.79358951


--------------------------------------------------------------------------------------------------------




----------------------------------------- Iteration    1(   4)  ---------------------------------------


     EDDAV:  cpu time    7.32: real time    7.33
       DOS:  cpu time    0.00: real time    0.00
    --------------------------------------------
      LOOP:  cpu time    7.33: real time    7.34

 eigenvalue-minimisations  :   136
 total energy-change (2. order) :-0.8113844E+00  (-0.8102896E+00)
 number of electron      24.0000000 magnetization       9.0000000
 augmentation part       24.0000000 magnetization       9.0000000

 Free energy of the ion-electron system (eV)
  ---------------------------------------------------
  alpha Z        PSCENC =         2.34244495
  Ewald energy   TEWEN  =       716.09946382
  -1/2 Hartree   DENC   =     -1496.85493670
  -exchange  EXHF       =         0.00000000
  -V(xc)+E(xc)   XCENC  =        88.91437461
  PAW double counting   =       435.82555033     -441.36928505
  entropy T*S    EENTRO =         0.00000000
  eigenvalues    EBANDS =      -405.36635218
  atomic energy  EATOM  =      1052.80376628
  ---------------------------------------------------
  free energy    TOTEN  =       -47.60497394 eV

  energy without entropy =      -47.60497394  energy(sigma->0) =      -47.60497394


--------------------------------------------------------------------------------------------------------




----------------------------------------- Iteration    1(   5)  ---------------------------------------


     EDDAV:  cpu time    8.12: real time    8.12
       DOS:  cpu time    0.00: real time    0.00
    CHARGE:  cpu time    0.70: real time    0.70
    MIXING:  cpu time    0.08: real time    0.08
    --------------------------------------------
      LOOP:  cpu time    8.90: real time    8.92

 eigenvalue-minimisations  :   152
 total energy-change (2. order) :-0.5273525E-02  (-0.5272355E-02)
 number of electron      23.9999986 magnetization       4.9241780
 augmentation part        1.3798417 magnetization       4.9205036

 Broyden mixing:
  rms(total) = 0.20940E+01    rms(broyden)= 0.20923E+01
  rms(prec ) = 0.24274E+01
  weight for this iteration     100.00

 Free energy of the ion-electron system (eV)
  ---------------------------------------------------
  alpha Z        PSCENC =         2.34244495
  Ewald energy   TEWEN  =       716.09946382
  -1/2 Hartree   DENC   =     -1496.85493670
  -exchange  EXHF       =         0.00000000
  -V(xc)+E(xc)   XCENC  =        88.91437461
  PAW double counting   =       435.82555033     -441.36928505
  entropy T*S    EENTRO =         0.00000000
  eigenvalues    EBANDS =      -405.37162571
  atomic energy  EATOM  =      1052.80376628
  ---------------------------------------------------
  free energy    TOTEN  =       -47.61024747 eV

  energy without entropy =      -47.61024747  energy(sigma->0) =      -47.61024747


--------------------------------------------------------------------------------------------------------




----------------------------------------- Iteration    1(   6)  ---------------------------------------


    POTLOK:  cpu time    4.32: real time    4.32
    SETDIJ:  cpu time    0.12: real time    0.12
     EDDAV:  cpu time    8.17: real time    8.17
       DOS:  cpu time    0.00: real time    0.00
    CHARGE:  cpu time    0.61: real time    0.61
    MIXING:  cpu time    0.08: real time    0.08
    --------------------------------------------
      LOOP:  cpu time   13.29: real time   13.31

 eigenvalue-minimisations  :   146
 total energy-change (2. order) : 0.2349675E+02  (-0.5548124E+01)
 number of electron      23.9999986 magnetization       2.5849022
 augmentation part        1.2485610 magnetization       2.4795411

 Broyden mixing:
  rms(total) = 0.78920E+00    rms(broyden)= 0.78815E+00
  rms(prec ) = 0.96570E+00
  weight for this iteration     100.00

 eigenvalues of (default mixing * dielectric matrix)
  average eigenvalue GAMMA=   0.9227
  0.9227

 Free energy of the ion-electron system (eV)
  ---------------------------------------------------
  alpha Z        PSCENC =         2.34244495
  Ewald energy   TEWEN  =       716.09946382
  -1/2 Hartree   DENC   =     -1553.42345039
  -exchange  EXHF       =         0.00000000
  -V(xc)+E(xc)   XCENC  =       112.36711095
  PAW double counting   =       559.43377997     -565.64342997
  entropy T*S    EENTRO =         0.00000000
  eigenvalues    EBANDS =      -348.09317846
  atomic energy  EATOM  =      1052.80376628
  ---------------------------------------------------
  free energy    TOTEN  =       -24.11349286 eV

  energy without entropy =      -24.11349286  energy(sigma->0) =      -24.11349286


--------------------------------------------------------------------------------------------------------




----------------------------------------- Iteration    1(   7)  ---------------------------------------


    POTLOK:  cpu time    3.82: real time    3.83
    SETDIJ:  cpu time    0.11: real time    0.11
     EDDAV:  cpu time    5.86: real time    5.87
       DOS:  cpu time    0.00: real time    0.00
    CHARGE:  cpu time    0.55: real time    0.55
    MIXING:  cpu time    0.09: real time    0.09
    --------------------------------------------
      LOOP:  cpu time   10.42: real time   10.45

 eigenvalue-minimisations  :   124
 total energy-change (2. order) :-0.1938888E+02  (-0.1787945E+01)
 number of electron      23.9999987 magnetization       1.2748336
 augmentation part        1.1802950 magnetization       1.2186765

 Broyden mixing:
  rms(total) = 0.44115E+00    rms(broyden)= 0.44092E+00
  rms(prec ) = 0.52237E+00
  weight for this iteration     100.00

 eigenvalues of (default mixing * dielectric matrix)
  average eigenvalue GAMMA=   0.9767
  0.9767  0.9767

 Free energy of the ion-electron system (eV)
  ---------------------------------------------------
  alpha Z        PSCENC =         2.34244495
  Ewald energy   TEWEN  =       716.09946382
  -1/2 Hartree   DENC   =     -1580.59339698
  -exchange  EXHF       =         0.00000000
  -V(xc)+E(xc)   XCENC  =        98.28124663
  PAW double counting   =       615.14035644     -621.51530569
  entropy T*S    EENTRO =         0.00000000
  eigenvalues    EBANDS =      -326.06094968
  atomic energy  EATOM  =      1052.80376628
  ---------------------------------------------------
  free energy    TOTEN  =       -43.50237423 eV

  energy without entropy =      -43.50237423  energy(sigma->0) =      -43.50237423


--------------------------------------------------------------------------------------------------------




----------------------------------------- Iteration    1(   8)  ---------------------------------------


    POTLOK:  cpu time    3.81: real time    3.81
    SETDIJ:  cpu time    0.10: real time    0.11
     EDDAV:  cpu time    6.34: real time    6.34
       DOS:  cpu time    0.00: real time    0.00
    CHARGE:  cpu time    0.50: real time    0.50
    MIXING:  cpu time    0.08: real time    0.08
    --------------------------------------------
      LOOP:  cpu time   10.84: real time   10.86

 eigenvalue-minimisations  :   136
 total energy-change (2. order) :-0.4258678E+01  (-0.1544899E+00)
 number of electron      23.9999988 magnetization       0.2305395
 augmentation part        1.1855586 magnetization       0.2008972

 Broyden mixing:
  rms(total) = 0.23775E+00    rms(broyden)= 0.23766E+00
  rms(prec ) = 0.29157E+00
  weight for this iteration     100.00

 eigenvalues of (default mixing * dielectric matrix)
  average eigenvalue GAMMA=   1.1961
  1.7858  1.0666  0.7360

 Free energy of the ion-electron system (eV)
  ---------------------------------------------------
  alpha Z        PSCENC =         2.34244495
  Ewald energy   TEWEN  =       716.09946382
  -1/2 Hartree   DENC   =     -1587.46187568
  -exchange  EXHF       =         0.00000000
  -V(xc)+E(xc)   XCENC  =        94.78997903
  PAW double counting   =       631.75626553     -638.09186854
  entropy T*S    EENTRO =         0.00000000
  eigenvalues    EBANDS =      -319.99922743
  atomic energy  EATOM  =      1052.80376628
  ---------------------------------------------------
  free energy    TOTEN  =       -47.76105204 eV

  energy without entropy =      -47.76105204  energy(sigma->0) =      -47.76105204


--------------------------------------------------------------------------------------------------------




----------------------------------------- Iteration    1(   9)  ---------------------------------------


    POTLOK:  cpu time    3.82: real time    3.82
    SETDIJ:  cpu time    0.11: real time    0.11
     EDDAV:  cpu time    6.17: real time    6.17
       DOS:  cpu time    0.00: real time    0.00
    CHARGE:  cpu time    0.65: real time    0.65
    MIXING:  cpu time    0.11: real time    0.11
    --------------------------------------------
      LOOP:  cpu time   10.85: real time   10.87

 eigenvalue-minimisations  :   120
 total energy-change (2. order) :-0.3934966E+01  (-0.2297371E+00)
 number of electron      23.9999988 magnetization       0.0683143
 augmentation part        1.1712690 magnetization       0.0590525

 Broyden mixing:
  rms(total) = 0.64767E-01    rms(broyden)= 0.64585E-01
  rms(prec ) = 0.98883E-01
  weight for this iteration     100.00

 eigenvalues of (default mixing * dielectric matrix)
  average eigenvalue GAMMA=   1.2057
  1.9874  1.2424  0.8623  0.7309

 Free energy of the ion-electron system (eV)
  ---------------------------------------------------
  alpha Z        PSCENC =         2.34244495
  Ewald energy   TEWEN  =       716.09946382
  -1/2 Hartree   DENC   =     -1594.81960163
  -exchange  EXHF       =         0.00000000
  -V(xc)+E(xc)   XCENC  =        91.98347776
  PAW double counting   =       648.08781636     -654.41291502
  entropy T*S    EENTRO =         0.00000000
  eigenvalues    EBANDS =      -313.78047046
  atomic energy  EATOM  =      1052.80376628
  ---------------------------------------------------
  free energy    TOTEN  =       -51.69601795 eV

  energy without entropy =      -51.69601795  energy(sigma->0) =      -51.69601795


--------------------------------------------------------------------------------------------------------




----------------------------------------- Iteration    1(  10)  ---------------------------------------


    POTLOK:  cpu time    4.21: real time    4.22
    SETDIJ:  cpu time    0.12: real time    0.12
     EDDAV:  cpu time    6.58: real time    6.58
       DOS:  cpu time    0.00: real time    0.00
    CHARGE:  cpu time    0.64: real time    0.64
    MIXING:  cpu time    0.11: real time    0.11
    --------------------------------------------
      LOOP:  cpu time   11.66: real time   11.69

 eigenvalue-minimisations  :   114
 total energy-change (2. order) :-0.2450194E+00  (-0.1305960E-01)
 number of electron      23.9999987 magnetization       0.0051699
 augmentation part        1.1667191 magnetization       0.0037686

 Broyden mixing:
  rms(total) = 0.35317E-01    rms(broyden)= 0.35241E-01
  rms(prec ) = 0.63809E-01
  weight for this iteration     100.00

 eigenvalues of (default mixing * dielectric matrix)
  average eigenvalue GAMMA=   1.1930
  2.0129  1.5196  0.8867  0.8867  0.6591

 Free energy of the ion-electron system (eV)
  ---------------------------------------------------
  alpha Z        PSCENC =         2.34244495
  Ewald energy   TEWEN  =       716.09946382
  -1/2 Hartree   DENC   =     -1595.71694776
  -exchange  EXHF       =         0.00000000
  -V(xc)+E(xc)   XCENC  =        91.80675459
  PAW double counting   =       649.40040741     -655.70815452
  entropy T*S    EENTRO =         0.00000000
  eigenvalues    EBANDS =      -312.96877208
  atomic energy  EATOM  =      1052.80376628
  ---------------------------------------------------
  free energy    TOTEN  =       -51.94103731 eV

  energy without entropy =      -51.94103731  energy(sigma->0) =      -51.94103731


--------------------------------------------------------------------------------------------------------




----------------------------------------- Iteration    1(  11)  ---------------------------------------


    POTLOK:  cpu time    4.19: real time    4.19
    SETDIJ:  cpu time    0.11: real time    0.11
     EDDAV:  cpu time    6.78: real time    6.78
       DOS:  cpu time    0.00: real time    0.00
    CHARGE:  cpu time    0.60: real time    0.60
    MIXING:  cpu time    0.11: real time    0.11
    --------------------------------------------
      LOOP:  cpu time   11.79: real time   12.57

 eigenvalue-minimisations  :   118
 total energy-change (2. order) :-0.2762312E-01  (-0.1942246E-02)
 number of electron      23.9999987 magnetization      -0.0292599
 augmentation part        1.1683865 magnetization      -0.0292896

 Broyden mixing:
  rms(total) = 0.17092E-01    rms(broyden)= 0.17070E-01
  rms(prec ) = 0.42909E-01
  weight for this iteration     100.00

 eigenvalues of (default mixing * dielectric matrix)
  average eigenvalue GAMMA=   1.2051
  2.0784  1.7769  1.0846  0.8466  0.7845  0.6595

 Free energy of the ion-electron system (eV)
  ---------------------------------------------------
  alpha Z        PSCENC =         2.34244495
  Ewald energy   TEWEN  =       716.09946382
  -1/2 Hartree   DENC   =     -1596.26004051
  -exchange  EXHF       =         0.00000000
  -V(xc)+E(xc)   XCENC  =        91.76779071
  PAW double counting   =       648.88178285     -655.16901841
  entropy T*S    EENTRO =         0.00000000
  eigenvalues    EBANDS =      -312.43485012
  atomic energy  EATOM  =      1052.80376628
  ---------------------------------------------------
  free energy    TOTEN  =       -51.96866043 eV

  energy without entropy =      -51.96866043  energy(sigma->0) =      -51.96866043


--------------------------------------------------------------------------------------------------------




----------------------------------------- Iteration    1(  12)  ---------------------------------------


    POTLOK:  cpu time    4.26: real time    4.26
    SETDIJ:  cpu time    0.12: real time    0.12
     EDDAV:  cpu time    7.61: real time    7.62
       DOS:  cpu time    0.00: real time    0.00
    CHARGE:  cpu time    0.62: real time    0.62
    MIXING:  cpu time    0.13: real time    0.13
    --------------------------------------------
      LOOP:  cpu time   12.74: real time   12.81

 eigenvalue-minimisations  :   136
 total energy-change (2. order) :-0.3226917E-02  (-0.3096340E-03)
 number of electron      23.9999987 magnetization      -0.0291379
 augmentation part        1.1678882 magnetization      -0.0286264

 Broyden mixing:
  rms(total) = 0.11051E-01    rms(broyden)= 0.11048E-01
  rms(prec ) = 0.31500E-01
  weight for this iteration     100.00

 eigenvalues of (default mixing * dielectric matrix)
  average eigenvalue GAMMA=   1.2411
  2.2022  1.8691  1.3727  0.9359  0.9359  0.6928  0.6793

 Free energy of the ion-electron system (eV)
  ---------------------------------------------------
  alpha Z        PSCENC =         2.34244495
  Ewald energy   TEWEN  =       716.09946382
  -1/2 Hartree   DENC   =     -1597.42807140
  -exchange  EXHF       =         0.00000000
  -V(xc)+E(xc)   XCENC  =        91.78540531
  PAW double counting   =       649.28268523     -655.56627168
  entropy T*S    EENTRO =         0.00000000
  eigenvalues    EBANDS =      -311.29130986
  atomic energy  EATOM  =      1052.80376628
  ---------------------------------------------------
  free energy    TOTEN  =       -51.97188735 eV

  energy without entropy =      -51.97188735  energy(sigma->0) =      -51.97188735


--------------------------------------------------------------------------------------------------------




----------------------------------------- Iteration    1(  13)  ---------------------------------------


    POTLOK:  cpu time    4.14: real time    4.14
    SETDIJ:  cpu time    0.12: real time    0.12
     EDDAV:  cpu time    6.24: real time    6.24
       DOS:  cpu time    0.00: real time    0.00
    CHARGE:  cpu time    0.62: real time    0.62
    MIXING:  cpu time    0.14: real time    0.14
    --------------------------------------------
      LOOP:  cpu time   11.26: real time   11.27

 eigenvalue-minimisations  :   108
 total energy-change (2. order) :-0.1467426E-01  (-0.5504720E-03)
 number of electron      23.9999987 magnetization      -0.0042487
 augmentation part        1.1668062 magnetization      -0.0039776

 Broyden mixing:
  rms(total) = 0.75485E-02    rms(broyden)= 0.75428E-02
  rms(prec ) = 0.17471E-01
  weight for this iteration     100.00

 eigenvalues of (default mixing * dielectric matrix)
  average eigenvalue GAMMA=   1.3337
  2.9530  2.1087  1.4672  1.1072  0.8330  0.8330  0.7249  0.6426

 Free energy of the ion-electron system (eV)
  ---------------------------------------------------
  alpha Z        PSCENC =         2.34244495
  Ewald energy   TEWEN  =       716.09946382
  -1/2 Hartree   DENC   =     -1599.27144778
  -exchange  EXHF       =         0.00000000
  -V(xc)+E(xc)   XCENC  =        91.80350091
  PAW double counting   =       649.26655214     -655.54912997
  entropy T*S    EENTRO =         0.00000000
  eigenvalues    EBANDS =      -309.48171196
  atomic energy  EATOM  =      1052.80376628
  ---------------------------------------------------
  free energy    TOTEN  =       -51.98656161 eV

  energy without entropy =      -51.98656161  energy(sigma->0) =      -51.98656161


--------------------------------------------------------------------------------------------------------




----------------------------------------- Iteration    1(  14)  ---------------------------------------


    POTLOK:  cpu time    4.14: real time    4.14
    SETDIJ:  cpu time    0.12: real time    0.12
     EDDAV:  cpu time    7.81: real time    7.81
       DOS:  cpu time    0.00: real time    0.00
    CHARGE:  cpu time    0.63: real time    0.63
    MIXING:  cpu time    0.15: real time    0.15
    --------------------------------------------
      LOOP:  cpu time   12.85: real time   12.87

 eigenvalue-minimisations  :   144
 total energy-change (2. order) :-0.6570995E-02  (-0.1877444E-03)
 number of electron      23.9999988 magnetization       0.0049484
 augmentation part        1.1662928 magnetization       0.0050320

 Broyden mixing:
  rms(total) = 0.51131E-02    rms(broyden)= 0.51112E-02
  rms(prec ) = 0.11220E-01
  weight for this iteration     100.00

 eigenvalues of (default mixing * dielectric matrix)
  average eigenvalue GAMMA=   1.3770
  3.6012  2.1593  1.3462  1.3462  0.9059  0.9059  0.7660  0.7330  0.6293

 Free energy of the ion-electron system (eV)
  ---------------------------------------------------
  alpha Z        PSCENC =         2.34244495
  Ewald energy   TEWEN  =       716.09946382
  -1/2 Hartree   DENC   =     -1599.94567018
  -exchange  EXHF       =         0.00000000
  -V(xc)+E(xc)   XCENC  =        91.80053308
  PAW double counting   =       648.54079688     -654.82226555
  entropy T*S    EENTRO =         0.00000000
  eigenvalues    EBANDS =      -308.81220188
  atomic energy  EATOM  =      1052.80376628
  ---------------------------------------------------
  free energy    TOTEN  =       -51.99313261 eV

  energy without entropy =      -51.99313261  energy(sigma->0) =      -51.99313261


--------------------------------------------------------------------------------------------------------




----------------------------------------- Iteration    1(  15)  ---------------------------------------


    POTLOK:  cpu time    4.14: real time    4.15
    SETDIJ:  cpu time    0.12: real time    0.12
     EDDAV:  cpu time    7.66: real time    7.66
       DOS:  cpu time    0.00: real time    0.00
    CHARGE:  cpu time    0.65: real time    0.65
    MIXING:  cpu time    0.18: real time    0.18
    --------------------------------------------
      LOOP:  cpu time   12.75: real time   12.77

 eigenvalue-minimisations  :   144
 total energy-change (2. order) :-0.3993053E-02  (-0.5735702E-04)
 number of electron      23.9999987 magnetization       0.0041642
 augmentation part        1.1664401 magnetization       0.0040455

 Broyden mixing:
  rms(total) = 0.32733E-02    rms(broyden)= 0.32725E-02
  rms(prec ) = 0.74884E-02
  weight for this iteration     100.00

 eigenvalues of (default mixing * dielectric matrix)
  average eigenvalue GAMMA=   1.4968
  4.3814  2.2961  1.6733  1.6733  1.0696  0.9015  0.9015  0.7399  0.7061  0.6250

 Free energy of the ion-electron system (eV)
  ---------------------------------------------------
  alpha Z        PSCENC =         2.34244495
  Ewald energy   TEWEN  =       716.09946382
  -1/2 Hartree   DENC   =     -1600.12187920
  -exchange  EXHF       =         0.00000000
  -V(xc)+E(xc)   XCENC  =        91.79484159
  PAW double counting   =       647.99717024     -654.27718274
  entropy T*S    EENTRO =         0.00000000
  eigenvalues    EBANDS =      -308.63575060
  atomic energy  EATOM  =      1052.80376628
  ---------------------------------------------------
  free energy    TOTEN  =       -51.99712566 eV

  energy without entropy =      -51.99712566  energy(sigma->0) =      -51.99712566


--------------------------------------------------------------------------------------------------------




----------------------------------------- Iteration    1(  16)  ---------------------------------------


    POTLOK:  cpu time    4.12: real time    4.12
    SETDIJ:  cpu time    0.12: real time    0.12
     EDDAV:  cpu time    6.81: real time    6.82
       DOS:  cpu time    0.00: real time    0.00
    CHARGE:  cpu time    0.63: real time    0.63
    MIXING:  cpu time    0.18: real time    0.18
    --------------------------------------------
      LOOP:  cpu time   11.86: real time   11.87

 eigenvalue-minimisations  :   126
 total energy-change (2. order) :-0.3648357E-02  (-0.5079469E-04)
 number of electron      23.9999987 magnetization       0.0022343
 augmentation part        1.1663320 magnetization       0.0021557

 Broyden mixing:
  rms(total) = 0.17451E-02    rms(broyden)= 0.17448E-02
  rms(prec ) = 0.43396E-02
  weight for this iteration     100.00

 eigenvalues of (default mixing * dielectric matrix)
  average eigenvalue GAMMA=   1.5593
  5.1826  2.5530  2.0120  1.3785  1.2548  0.9935  0.8659  0.8659  0.7332  0.6936
  0.6198

 Free energy of the ion-electron system (eV)
  ---------------------------------------------------
  alpha Z        PSCENC =         2.34244495
  Ewald energy   TEWEN  =       716.09946382
  -1/2 Hartree   DENC   =     -1600.34131231
  -exchange  EXHF       =         0.00000000
  -V(xc)+E(xc)   XCENC  =        91.79616515
  PAW double counting   =       647.86221171     -654.14258914
  entropy T*S    EENTRO =         0.00000000
  eigenvalues    EBANDS =      -308.42092448
  atomic energy  EATOM  =      1052.80376628
  ---------------------------------------------------
  free energy    TOTEN  =       -52.00077402 eV

  energy without entropy =      -52.00077402  energy(sigma->0) =      -52.00077402


--------------------------------------------------------------------------------------------------------




----------------------------------------- Iteration    1(  17)  ---------------------------------------


    POTLOK:  cpu time    4.20: real time    4.20
    SETDIJ:  cpu time    0.11: real time    0.11
     EDDAV:  cpu time    6.96: real time    6.96
       DOS:  cpu time    0.00: real time    0.00
    CHARGE:  cpu time    0.58: real time    0.58
    MIXING:  cpu time    0.19: real time    0.19
    --------------------------------------------
      LOOP:  cpu time   12.05: real time   12.07

 eigenvalue-minimisations  :   128
 total energy-change (2. order) :-0.1775980E-02  (-0.1619620E-04)
 number of electron      23.9999987 magnetization       0.0006751
 augmentation part        1.1662079 magnetization       0.0006434

 Broyden mixing:
  rms(total) = 0.13194E-02    rms(broyden)= 0.13186E-02
  rms(prec ) = 0.27448E-02
  weight for this iteration     100.00

 eigenvalues of (default mixing * dielectric matrix)
  average eigenvalue GAMMA=   1.6084
  5.9433  2.7390  2.0478  1.4383  1.4383  1.0829  0.8943  0.8943  0.8009  0.7266
  0.6758  0.6201

 Free energy of the ion-electron system (eV)
  ---------------------------------------------------
  alpha Z        PSCENC =         2.34244495
  Ewald energy   TEWEN  =       716.09946382
  -1/2 Hartree   DENC   =     -1600.43568912
  -exchange  EXHF       =         0.00000000
  -V(xc)+E(xc)   XCENC  =        91.79632874
  PAW double counting   =       647.91717935     -654.19812613
  entropy T*S    EENTRO =         0.00000000
  eigenvalues    EBANDS =      -308.32791790
  atomic energy  EATOM  =      1052.80376628
  ---------------------------------------------------
  free energy    TOTEN  =       -52.00255000 eV

  energy without entropy =      -52.00255000  energy(sigma->0) =      -52.00255000


--------------------------------------------------------------------------------------------------------




----------------------------------------- Iteration    1(  18)  ---------------------------------------


    POTLOK:  cpu time    4.16: real time    4.16
    SETDIJ:  cpu time    0.11: real time    0.11
     EDDAV:  cpu time    6.63: real time    6.63
       DOS:  cpu time    0.00: real time    0.00
    CHARGE:  cpu time    0.64: real time    0.64
    MIXING:  cpu time    0.21: real time    0.21
    --------------------------------------------
      LOOP:  cpu time   11.76: real time   11.77

 eigenvalue-minimisations  :   120
 total energy-change (2. order) :-0.1100386E-02  (-0.7073377E-05)
 number of electron      23.9999987 magnetization      -0.0007336
 augmentation part        1.1662363 magnetization      -0.0007483

 Broyden mixing:
  rms(total) = 0.81209E-03    rms(broyden)= 0.81194E-03
  rms(prec ) = 0.16390E-02
  weight for this iteration     100.00

 eigenvalues of (default mixing * dielectric matrix)
  average eigenvalue GAMMA=   1.6860
  6.6584  3.0725  2.1705  1.8432  1.4174  1.0885  1.0885  0.9031  0.9031  0.7473
  0.7473  0.6571  0.6215

 Free energy of the ion-electron system (eV)
  ---------------------------------------------------
  alpha Z        PSCENC =         2.34244495
  Ewald energy   TEWEN  =       716.09946382
  -1/2 Hartree   DENC   =     -1600.40065407
  -exchange  EXHF       =         0.00000000
  -V(xc)+E(xc)   XCENC  =        91.79323976
  PAW double counting   =       647.95211204     -654.23279200
  entropy T*S    EENTRO =         0.00000000
  eigenvalues    EBANDS =      -308.36123117
  atomic energy  EATOM  =      1052.80376628
  ---------------------------------------------------
  free energy    TOTEN  =       -52.00365039 eV

  energy without entropy =      -52.00365039  energy(sigma->0) =      -52.00365039


--------------------------------------------------------------------------------------------------------




----------------------------------------- Iteration    1(  19)  ---------------------------------------


    POTLOK:  cpu time    4.10: real time    4.10
    SETDIJ:  cpu time    0.11: real time    0.11
     EDDAV:  cpu time    6.04: real time    6.04
       DOS:  cpu time    0.00: real time    0.00
    CHARGE:  cpu time    0.60: real time    0.60
    MIXING:  cpu time    0.21: real time    0.21
    --------------------------------------------
      LOOP:  cpu time   11.07: real time   11.08

 eigenvalue-minimisations  :   104
 total energy-change (2. order) :-0.5106337E-03  (-0.6118594E-05)
 number of electron      23.9999987 magnetization      -0.0004553
 augmentation part        1.1662499 magnetization      -0.0004368

 Broyden mixing:
  rms(total) = 0.48334E-03    rms(broyden)= 0.48296E-03
  rms(prec ) = 0.77648E-03
  weight for this iteration     100.00

 eigenvalues of (default mixing * dielectric matrix)
  average eigenvalue GAMMA=   1.7552
  7.2799  3.7168  2.4082  2.0145  1.3302  1.3302  0.9253  0.9253  0.9557  0.9557
  0.7534  0.7091  0.6190  0.6499

 Free energy of the ion-electron system (eV)
  ---------------------------------------------------
  alpha Z        PSCENC =         2.34244495
  Ewald energy   TEWEN  =       716.09946382
  -1/2 Hartree   DENC   =     -1600.35008119
  -exchange  EXHF       =         0.00000000
  -V(xc)+E(xc)   XCENC  =        91.79044973
  PAW double counting   =       647.99953924     -654.27995557
  entropy T*S    EENTRO =         0.00000000
  eigenvalues    EBANDS =      -308.40978828
  atomic energy  EATOM  =      1052.80376628
  ---------------------------------------------------
  free energy    TOTEN  =       -52.00416102 eV

  energy without entropy =      -52.00416102  energy(sigma->0) =      -52.00416102


--------------------------------------------------------------------------------------------------------




----------------------------------------- Iteration    1(  20)  ---------------------------------------


    POTLOK:  cpu time    4.17: real time    4.17
    SETDIJ:  cpu time    0.11: real time    0.11
     EDDAV:  cpu time    5.49: real time    5.49
       DOS:  cpu time    0.00: real time    0.00
    CHARGE:  cpu time    0.63: real time    0.63
    MIXING:  cpu time    0.19: real time    0.19
    --------------------------------------------
      LOOP:  cpu time   10.60: real time   10.62

 eigenvalue-minimisations  :    96
 total energy-change (2. order) :-0.2343342E-03  (-0.1397847E-05)
 number of electron      23.9999987 magnetization      -0.0002501
 augmentation part        1.1662207 magnetization      -0.0002408

 Broyden mixing:
  rms(total) = 0.26090E-03    rms(broyden)= 0.26075E-03
  rms(prec ) = 0.43730E-03
  weight for this iteration     100.00

 eigenvalues of (default mixing * dielectric matrix)
  average eigenvalue GAMMA=   1.7760
  7.6771  4.1142  2.5128  2.0400  1.5544  1.1857  1.1058  1.1058  0.9015  0.9015
  0.8326  0.7615  0.6854  0.6161  0.6459

 Free energy of the ion-electron system (eV)
  ---------------------------------------------------
  alpha Z        PSCENC =         2.34244495
  Ewald energy   TEWEN  =       716.09946382
  -1/2 Hartree   DENC   =     -1600.34919606
  -exchange  EXHF       =         0.00000000
  -V(xc)+E(xc)   XCENC  =        91.79021805
  PAW double counting   =       648.01936697     -654.29988928
  entropy T*S    EENTRO =         0.00000000
  eigenvalues    EBANDS =      -308.41057008
  atomic energy  EATOM  =      1052.80376628
  ---------------------------------------------------
  free energy    TOTEN  =       -52.00439535 eV

  energy without entropy =      -52.00439535  energy(sigma->0) =      -52.00439535


--------------------------------------------------------------------------------------------------------




----------------------------------------- Iteration    1(  21)  ---------------------------------------


    POTLOK:  cpu time    4.34: real time    4.34
    SETDIJ:  cpu time    0.12: real time    0.12
     EDDAV:  cpu time    6.90: real time    6.90
       DOS:  cpu time    0.00: real time    0.00
    --------------------------------------------
      LOOP:  cpu time   11.37: real time   11.38

 eigenvalue-minimisations  :   112
 total energy-change (2. order) :-0.9341957E-04  (-0.6926517E-06)
 number of electron      23.9999987 magnetization      -0.0002501
 augmentation part        1.1662207 magnetization      -0.0002408

 Free energy of the ion-electron system (eV)
  ---------------------------------------------------
  alpha Z        PSCENC =         2.34244495
  Ewald energy   TEWEN  =       716.09946382
  -1/2 Hartree   DENC   =     -1600.34927988
  -exchange  EXHF       =         0.00000000
  -V(xc)+E(xc)   XCENC  =        91.79017021
  PAW double counting   =       648.02033417     -654.30088059
  entropy T*S    EENTRO =         0.00000000
  eigenvalues    EBANDS =      -308.41050773
  atomic energy  EATOM  =      1052.80376628
  ---------------------------------------------------
  free energy    TOTEN  =       -52.00448877 eV

  energy without entropy =      -52.00448877  energy(sigma->0) =      -52.00448877


--------------------------------------------------------------------------------------------------------




 average (electrostatic) potential at core
  the test charge radii are     0.5201  0.6991  0.7215  0.7089
  (the norm of the test charge is              1.0000)
       1 -44.2250       2 -41.7607       3 -41.9998       4 -42.0503       5 -44.0115
       6 -60.8818       7 -58.5271       8 -79.4258       9 -74.0121
 
 
 
 E-fermi :  -4.5193     XC(G=0):  -1.2140     alpha+bet : -0.5006


 spin component 1

 k-point   1 :       0.0000    0.0000    0.0000
  band No.  band energies     occupation 
      1     -25.5753      1.00000
      2     -22.3360      1.00000
      3     -18.0512      1.00000
      4     -14.2628      1.00000
      5     -12.9862      1.00000
      6     -11.1661      1.00000
      7     -10.7025      1.00000
      8      -9.4506      1.00000
      9      -9.2969      1.00000
     10      -8.6409      1.00000
     11      -6.2871      1.00000
     12      -5.4493      1.00000
     13      -0.6808      0.00000
     14      -0.4095      0.00000
     15       0.6412      0.00000
     16       0.6807      0.00000
     17       1.0646      0.00000
     18       1.1414      0.00000
     19       1.2218      0.00000
     20       1.2607      0.00000
     21       2.0232      0.00000
     22       2.1845      0.00000
     23       2.2260      0.00000
     24       2.3304      0.00000
     25       2.4321      0.00000
     26       2.5948      0.00000

 spin component 2

 k-point   1 :       0.0000    0.0000    0.0000
  band No.  band energies     occupation 
      1     -25.5753      1.00000
      2     -22.3360      1.00000
      3     -18.0513      1.00000
      4     -14.2629      1.00000
      5     -12.9863      1.00000
      6     -11.1662      1.00000
      7     -10.7025      1.00000
      8      -9.4507      1.00000
      9      -9.2969      1.00000
     10      -8.6409      1.00000
     11      -6.2871      1.00000
     12      -5.4494      1.00000
     13      -0.6834      0.00000
     14      -0.4098      0.00000
     15       0.6385      0.00000
     16       0.6806      0.00000
     17       1.0617      0.00000
     18       1.1292      0.00000
     19       1.1999      0.00000
     20       1.2481      0.00000
     21       2.0226      0.00000
     22       2.1797      0.00000
     23       2.2189      0.00000
     24       2.3235      0.00000
     25       2.4204      0.00000
     26       2.5808      0.00000


--------------------------------------------------------------------------------------------------------


 soft charge-density along one line, spin component           1
         0         1         2         3         4         5         6         7         8         9
 total charge-density along one line
 
 soft charge-density along one line, spin component           2
         0         1         2         3         4         5         6         7         8         9
 total charge-density along one line
 
 pseudopotential strength for first ion, spin component:           1
 -2.378  -0.016  -0.002   0.000  -0.001
 -0.016   0.049  -0.002   0.001  -0.001
 -0.002  -0.002  -0.321  -0.002   0.002
  0.000   0.001  -0.002  -0.327   0.000
 -0.001  -0.001   0.002   0.000  -0.326
 pseudopotential strength for first ion, spin component:           2
 -2.378  -0.016  -0.002   0.000  -0.001
 -0.016   0.049  -0.002   0.001  -0.001
 -0.002  -0.002  -0.321  -0.002   0.002
  0.000   0.001  -0.002  -0.327   0.000
 -0.001  -0.001   0.002   0.000  -0.326
 total augmentation occupancy for first ion, spin component:           1
  1.721  -0.696   0.367  -0.081   0.106
 -0.696   0.367  -0.167   0.039  -0.048
  0.367  -0.167   0.085  -0.014   0.020
 -0.081   0.039  -0.014   0.030  -0.005
  0.106  -0.048   0.020  -0.005   0.018
 total augmentation occupancy for first ion, spin component:           2
  0.000   0.000   0.000   0.000   0.000
  0.000   0.000   0.000   0.000   0.000
  0.000   0.000   0.000   0.000   0.000
  0.000   0.000   0.000   0.000   0.000
  0.000   0.000   0.000   0.000   0.000


------------------------ aborting loop because EDIFF is reached ----------------------------------------


    CHARGE:  cpu time    0.61: real time    0.61
    FORLOC:  cpu time    0.31: real time    0.31
    FORNL :  cpu time    1.20: real time    1.20
    STRESS:  cpu time    3.12: real time    3.12
    FORHAR:  cpu time    0.73: real time    0.73
    MIXING:  cpu time    0.25: real time    0.25

  FORCE on cell =-STRESS in cart. coord.  units (eV):
  Direction    XX          YY          ZZ          XY          YZ          ZX
  --------------------------------------------------------------------------------------
  Alpha Z     2.34244     2.34244     2.34244
  Ewald     459.87142   552.83851  -296.61101    21.73202    -4.68100     4.62746
  Hartree   698.12465   698.82498   203.39060     2.81330     2.00402    -0.18070
  E(xc)     -96.19134   -95.62398   -97.51319     0.13523    -0.03364     0.02522
  Local   -1421.35663 -1484.94798  -190.24826   -16.58361     0.16598    -3.15936
  n-local   -61.01904   -62.10823   -59.06264    -0.51317    -0.18531     0.00929
  augment     8.14009     6.52222     7.58521    -0.48048     0.06192    -0.01957
  Kinetic   406.24147   378.73016   425.47902    -7.00353     2.62900    -1.27764
  Fock        0.00000     0.00000     0.00000     0.00000     0.00000     0.00000
  -------------------------------------------------------------------------------------
  Total      -3.84693    -3.42188    -4.63783     0.09977    -0.03903     0.02470
  in kB      -6.16347    -5.48246    -7.43062     0.15985    -0.06253     0.03957
  external pressure =       -6.36 kB  Pullay stress =        0.00 kB


 VOLUME and BASIS-vectors are now :
 -----------------------------------------------------------------------------
  energy-cutoff  :      350.00
  volume of cell :     1000.00
      direct lattice vectors                 reciprocal lattice vectors
    10.000000000  0.000000000  0.000000000     0.100000000  0.000000000  0.000000000
     0.000000000 10.000000000  0.000000000     0.000000000  0.100000000  0.000000000
     0.000000000  0.000000000 10.000000000     0.000000000  0.000000000  0.100000000

  length of vectors
    10.000000000 10.000000000 10.000000000     0.100000000  0.100000000  0.100000000


 FORCES acting on ions
    electron-ion (+dipol)            ewald-force                    non-local-force                 convergence-correction
 -----------------------------------------------------------------------------------------------
   0.566E+01 0.877E+02 -.162E+02   -.779E+01 -.951E+02 0.177E+02   0.202E+01 0.704E+01 -.156E+01   -.173E-03 0.368E-04 0.444E-04
   0.559E+02 -.435E+02 0.105E+02   -.593E+02 0.483E+02 -.115E+02   0.325E+01 -.461E+01 0.916E+00   0.916E-04 0.146E-03 0.244E-05
   0.310E+02 0.458E+02 0.453E+02   -.321E+02 -.498E+02 -.495E+02   0.103E+01 0.377E+01 0.394E+01   0.973E-04 -.459E-04 -.167E-03
   0.340E+02 0.284E+02 -.565E+02   -.355E+02 -.307E+02 0.616E+02   0.139E+01 0.215E+01 -.488E+01   0.925E-04 0.114E-04 0.225E-03
   -.894E+02 -.236E+01 -.114E+02   0.969E+02 0.434E+01 0.125E+02   -.715E+01 -.191E+01 -.111E+01   0.153E-04 0.226E-03 0.219E-04
   0.508E+02 0.494E+02 0.188E+00   -.557E+02 -.501E+02 0.294E+00   0.471E+01 0.427E+00 -.471E+00   0.776E-04 0.130E-02 0.661E-04
   0.142E+03 0.373E+02 0.457E-01   -.143E+03 -.365E+02 -.444E+00   0.102E+01 -.694E+00 0.359E+00   0.143E-02 0.683E-03 0.844E-04
   -.853E+02 -.311E+03 -.315E+01   0.994E+02 0.364E+03 0.367E+01   -.140E+02 -.523E+02 -.526E+00   -.102E-02 -.274E-02 0.161E-03
   -.137E+03 0.154E+03 0.245E+02   0.137E+03 -.154E+03 -.345E+02   -.709E+00 0.770E+00 0.996E+01   -.125E-02 0.203E-02 0.358E-03
 -----------------------------------------------------------------------------------------------
   0.842E+01 0.454E+02 -.663E+01   0.284E-13 0.568E-13 0.711E-14   -.843E+01 -.454E+02 0.663E+01   -.646E-03 0.165E-02 0.797E-03
 
 
 POSITION                                       TOTAL-FORCE (eV/Angst)
 -----------------------------------------------------------------------------------
      5.73000      3.42436      5.07088        -0.115552     -0.345686      0.013762
      3.02482      5.83353      4.72546        -0.193170      0.203796     -0.038039
      3.46121      4.20934      4.12925        -0.075724     -0.212546     -0.187918
      3.38994      4.52561      5.87075        -0.075273     -0.118180      0.251068
      6.97518      4.61704      5.01280         0.346016      0.063003      0.020486
      5.09921      5.39840      4.89669        -0.204087     -0.314825      0.011697
      3.65057      4.95995      4.90079         0.207993      0.153168     -0.038975
      5.44659      6.57564      4.90897         0.118241      0.403390     -0.002467
      6.00757      4.37008      4.85203        -0.008445      0.167880     -0.029613
 -----------------------------------------------------------------------------------
    total drift:                               -0.003705     -0.001422     -0.001026


--------------------------------------------------------------------------------------------------------



  FREE ENERGIE OF THE ION-ELECTRON SYSTEM (eV)
  ---------------------------------------------------
  free  energy   TOTEN  =       -52.004489 eV

  energy  without entropy=      -52.004489  energy(sigma->0) =      -52.004489
 


--------------------------------------------------------------------------------------------------------


    POTLOK:  cpu time    4.29: real time    4.29


--------------------------------------------------------------------------------------------------------




--------------------------------------------------------------------------------------------------------


    WAVPRE:  cpu time    0.60: real time    0.60
    FEWALD:  cpu time    0.00: real time    0.00
    ORTHCH:  cpu time    0.40: real time    0.40
     LOOP+:  cpu time  244.12: real time  245.59


----------------------------------------- Iteration    2(   1)  ---------------------------------------


    POTLOK:  cpu time    4.09: real time    4.09
    SETDIJ:  cpu time    0.11: real time    0.11
     EDDAV:  cpu time    6.21: real time    6.21
       DOS:  cpu time    0.00: real time    0.00
    CHARGE:  cpu time    0.61: real time    0.61
    MIXING:  cpu time    0.08: real time    0.08
    --------------------------------------------
      LOOP:  cpu time   11.11: real time   11.11

 eigenvalue-minimisations  :   112
 total energy-change (2. order) : 0.4421399E-01  (-0.5001692E+00)
 number of electron      24.0000020 magnetization      -0.0000746
 augmentation part        1.1476112 magnetization      -0.0000948

 Broyden mixing:
  rms(total) = 0.64212E-01    rms(broyden)= 0.63734E-01
  rms(prec ) = 0.81297E-01
  weight for this iteration     100.00

 Free energy of the ion-electron system (eV)
  ---------------------------------------------------
  alpha Z        PSCENC =         2.34244495
  Ewald energy   TEWEN  =       704.02749617
  -1/2 Hartree   DENC   =     -1592.65068315
  -exchange  EXHF       =         0.00000000
  -V(xc)+E(xc)   XCENC  =        91.56255062
  PAW double counting   =       648.01367779     -654.29419005
  entropy T*S    EENTRO =         0.00000000
  eigenvalues    EBANDS =      -303.76524397
  atomic energy  EATOM  =      1052.80376628
  ---------------------------------------------------
  free energy    TOTEN  =       -51.96018136 eV

  energy without entropy =      -51.96018136  energy(sigma->0) =      -51.96018136


--------------------------------------------------------------------------------------------------------




----------------------------------------- Iteration    2(   2)  ---------------------------------------


    POTLOK:  cpu time    4.19: real time    4.19
    SETDIJ:  cpu time    0.11: real time    0.12
     EDDAV:  cpu time    7.66: real time    7.66
       DOS:  cpu time    0.00: real time    0.00
    CHARGE:  cpu time    0.62: real time    0.62
    MIXING:  cpu time    0.08: real time    0.09
    --------------------------------------------
      LOOP:  cpu time   12.67: real time   12.68

 eigenvalue-minimisations  :   136
 total energy-change (2. order) :-0.4229749E-02  (-0.1650286E-01)
 number of electron      24.0000021 magnetization      -0.0000338
 augmentation part        1.1467251 magnetization      -0.0000540

 Broyden mixing:
  rms(total) = 0.36626E-01    rms(broyden)= 0.36521E-01
  rms(prec ) = 0.45435E-01
  weight for this iteration     100.00

 eigenvalues of (default mixing * dielectric matrix)
  average eigenvalue GAMMA=   1.1475
  1.1475

 Free energy of the ion-electron system (eV)
  ---------------------------------------------------
  alpha Z        PSCENC =         2.34244495
  Ewald energy   TEWEN  =       704.02749617
  -1/2 Hartree   DENC   =     -1591.12147143
  -exchange  EXHF       =         0.00000000
  -V(xc)+E(xc)   XCENC  =        91.46717565
  PAW double counting   =       642.30561880     -648.56989189
  entropy T*S    EENTRO =         0.00000000
  eigenvalues    EBANDS =      -305.21954965
  atomic energy  EATOM  =      1052.80376628
  ---------------------------------------------------
  free energy    TOTEN  =       -51.96441111 eV

  energy without entropy =      -51.96441111  energy(sigma->0) =      -51.96441111


--------------------------------------------------------------------------------------------------------




----------------------------------------- Iteration    2(   3)  ---------------------------------------


    POTLOK:  cpu time    4.23: real time    4.23
    SETDIJ:  cpu time    0.12: real time    0.12
     EDDAV:  cpu time    8.23: real time    8.24
       DOS:  cpu time    0.00: real time    0.00
    CHARGE:  cpu time    0.63: real time    0.63
    MIXING:  cpu time    0.09: real time    0.09
    --------------------------------------------
      LOOP:  cpu time   13.31: real time   13.33

 eigenvalue-minimisations  :   152
 total energy-change (2. order) : 0.2721934E-02  (-0.6344731E-03)
 number of electron      24.0000021 magnetization      -0.0000084
 augmentation part        1.1481045 magnetization      -0.0000100

 Broyden mixing:
  rms(total) = 0.16908E-01    rms(broyden)= 0.16880E-01
  rms(prec ) = 0.21281E-01
  weight for this iteration     100.00

 eigenvalues of (default mixing * dielectric matrix)
  average eigenvalue GAMMA=   1.4375
  1.2309  1.6442

 Free energy of the ion-electron system (eV)
  ---------------------------------------------------
  alpha Z        PSCENC =         2.34244495
  Ewald energy   TEWEN  =       704.02749617
  -1/2 Hartree   DENC   =     -1590.38962565
  -exchange  EXHF       =         0.00000000
  -V(xc)+E(xc)   XCENC  =        91.42342300
  PAW double counting   =       638.78685323     -645.03138147
  entropy T*S    EENTRO =         0.00000000
  eigenvalues    EBANDS =      -305.92466568
  atomic energy  EATOM  =      1052.80376628
  ---------------------------------------------------
  free energy    TOTEN  =       -51.96168918 eV

  energy without entropy =      -51.96168918  energy(sigma->0) =      -51.96168918


--------------------------------------------------------------------------------------------------------




----------------------------------------- Iteration    2(   4)  ---------------------------------------


    POTLOK:  cpu time    4.24: real time    4.24
    SETDIJ:  cpu time    0.12: real time    0.12
     EDDAV:  cpu time    7.16: real time    7.16
       DOS:  cpu time    0.00: real time    0.00
    CHARGE:  cpu time    0.61: real time    0.61
    MIXING:  cpu time    0.10: real time    0.10
    --------------------------------------------
      LOOP:  cpu time   12.22: real time   12.24

 eigenvalue-minimisations  :   128
 total energy-change (2. order) : 0.6012633E-03  (-0.1759811E-03)
 number of electron      24.0000021 magnetization       0.0000000
 augmentation part        1.1477000 magnetization      -0.0000153

 Broyden mixing:
  rms(total) = 0.47976E-02    rms(broyden)= 0.47846E-02
  rms(prec ) = 0.72747E-02
  weight for this iteration     100.00

 eigenvalues of (default mixing * dielectric matrix)
  average eigenvalue GAMMA=   1.3501
  2.0223  1.1440  0.8840

 Free energy of the ion-electron system (eV)
  ---------------------------------------------------
  alpha Z        PSCENC =         2.34244495
  Ewald energy   TEWEN  =       704.02749617
  -1/2 Hartree   DENC   =     -1590.22056099
  -exchange  EXHF       =         0.00000000
  -V(xc)+E(xc)   XCENC  =        91.41094762
  PAW double counting   =       636.88094376     -643.11587202
  entropy T*S    EENTRO =         0.00000000
  eigenvalues    EBANDS =      -306.09025368
  atomic energy  EATOM  =      1052.80376628
  ---------------------------------------------------
  free energy    TOTEN  =       -51.96108791 eV

  energy without entropy =      -51.96108791  energy(sigma->0) =      -51.96108791


[...]
 -----------------------------------------------------------------------------------------------
   0.588E+01 0.868E+02 -.155E+02   -.785E+01 -.937E+02 0.169E+02   0.200E+01 0.684E+01 -.146E+01   0.387E-02 -.397E-02 0.191E-02
   0.555E+02 -.430E+02 0.104E+02   -.587E+02 0.475E+02 -.113E+02   0.320E+01 -.451E+01 0.890E+00   -.755E-02 0.360E-02 -.865E-03
   0.307E+02 0.455E+02 0.448E+02   -.317E+02 -.492E+02 -.486E+02   0.101E+01 0.369E+01 0.382E+01   -.543E-02 -.496E-02 -.390E-02
   0.337E+02 0.282E+02 -.559E+02   -.350E+02 -.303E+02 0.606E+02   0.134E+01 0.211E+01 -.475E+01   -.523E-02 -.310E-02 0.476E-02
   -.886E+02 -.243E+01 -.110E+02   0.956E+02 0.428E+01 0.121E+02   -.698E+01 -.188E+01 -.105E+01   0.354E-02 -.247E-02 0.165E-02
   0.499E+02 0.484E+02 0.162E+00   -.546E+02 -.489E+02 0.293E+00   0.474E+01 0.445E+00 -.456E+00   0.169E-01 0.104E-01 0.394E-02
   0.142E+03 0.371E+02 0.333E+00   -.143E+03 -.363E+02 -.733E+00   0.979E+00 -.792E+00 0.393E+00   -.392E-01 -.106E-01 0.183E-02
   -.845E+02 -.309E+03 -.293E+01   0.983E+02 0.361E+03 0.341E+01   -.139E+02 -.520E+02 -.485E+00   0.249E-01 0.854E-01 -.826E-03
   -.137E+03 0.153E+03 0.231E+02   0.137E+03 -.154E+03 -.327E+02   -.844E+00 0.786E+00 0.967E+01   0.536E-01 -.323E-01 0.225E-01
 -----------------------------------------------------------------------------------------------
   0.837E+01 0.453E+02 -.661E+01   -.284E-13 0.000E+00 0.711E-14   -.841E+01 -.453E+02 0.658E+01   0.455E-01 0.420E-01 0.310E-01
 
 
 POSITION                                       TOTAL-FORCE (eV/Angst)
 -----------------------------------------------------------------------------------
      5.72698      3.41503      5.06850         0.029198      0.020798     -0.057666
      3.01675      5.84140      4.72406        -0.022000     -0.020773      0.002977
      3.45817      4.20218      4.12357        -0.020946      0.025631      0.037068
      3.38763      4.52209      5.87832        -0.003909      0.021609     -0.041283
      6.98697      4.61909      5.01254         0.030194     -0.030595     -0.014381
      5.09923      5.39899      4.89719         0.024467      0.027529      0.003349
      3.64973      4.96269      4.89966        -0.016362     -0.007281     -0.005105
      5.44784      6.58298      4.90878        -0.015216     -0.086901     -0.005851
      6.01178      4.36950      4.85500        -0.005429      0.049982      0.080893
 -----------------------------------------------------------------------------------
    total drift:                                0.001320      0.002738     -0.000233


--------------------------------------------------------------------------------------------------------



  FREE ENERGIE OF THE ION-ELECTRON SYSTEM (eV)
  ---------------------------------------------------
  free  energy   TOTEN  =       -52.013622 eV

  energy  without entropy=      -52.013622  energy(sigma->0) =      -52.013622
 
 d Force = 0.1854425E-03[-0.103E-05, 0.372E-03]  d Energy = 0.2037117E-03-0.183E-04
 d Force =-0.1277729E+01[-0.128E+01,-0.128E+01]  d Ewald  =-0.1277728E+01-0.262E-06


--------------------------------------------------------------------------------------------------------


    POTLOK:  cpu time    4.05: real time    4.05


--------------------------------------------------------------------------------------------------------




--------------------------------------------------------------------------------------------------------


    WAVPRE:  cpu time    0.56: real time    0.56
    FEWALD:  cpu time    0.00: real time    0.00
    ORTHCH:  cpu time    0.30: real time    0.30
     LOOP+:  cpu time   33.17: real time   33.27


----------------------------------------- Iteration    8(   1)  ---------------------------------------


    POTLOK:  cpu time    3.88: real time    3.88
    SETDIJ:  cpu time    0.11: real time    0.11
     EDDAV:  cpu time    5.48: real time    5.48
       DOS:  cpu time    0.00: real time    0.00
    CHARGE:  cpu time    0.51: real time    0.51
    MIXING:  cpu time    0.07: real time    0.07
    --------------------------------------------
      LOOP:  cpu time   10.06: real time   10.06

 eigenvalue-minimisations  :   112
 total energy-change (2. order) :-0.3886674E-03  (-0.1225729E-01)
 number of electron      23.9999985 magnetization       0.0000000
 augmentation part        1.1600801 magnetization       0.0000000

 Broyden mixing:
  rms(total) = 0.64233E-02    rms(broyden)= 0.63045E-02
  rms(prec ) = 0.76135E-02
  weight for this iteration     100.00

 Free energy of the ion-electron system (eV)
  ---------------------------------------------------
  alpha Z        PSCENC =         2.34244495
  Ewald energy   TEWEN  =       708.81846088
  -1/2 Hartree   DENC   =     -1593.63462756
  -exchange  EXHF       =         0.00000000
  -V(xc)+E(xc)   XCENC  =        91.59404704
  PAW double counting   =       642.69342240     -648.95048437
  entropy T*S    EENTRO =         0.00000000
  eigenvalues    EBANDS =      -307.68100679
  atomic energy  EATOM  =      1052.80376628
  ---------------------------------------------------
  free energy    TOTEN  =       -52.01397717 eV

  energy without entropy =      -52.01397717  energy(sigma->0) =      -52.01397717


--------------------------------------------------------------------------------------------------------




----------------------------------------- Iteration    8(   2)  ---------------------------------------


    POTLOK:  cpu time    3.89: real time    3.89
    SETDIJ:  cpu time    0.11: real time    0.11
     EDDAV:  cpu time    6.64: real time    6.64
       DOS:  cpu time    0.00: real time    0.00
    CHARGE:  cpu time    0.54: real time    0.54
    MIXING:  cpu time    0.08: real time    0.08
    --------------------------------------------
      LOOP:  cpu time   11.26: real time   11.38

 eigenvalue-minimisations  :   144
 total energy-change (2. order) :-0.1172873E-03  (-0.2023500E-03)
 number of electron      23.9999985 magnetization       0.0000000
 augmentation part        1.1601327 magnetization       0.0000000

 Broyden mixing:
  rms(total) = 0.41864E-02    rms(broyden)= 0.41762E-02
  rms(prec ) = 0.51630E-02
  weight for this iteration     100.00

 eigenvalues of (default mixing * dielectric matrix)
  average eigenvalue GAMMA=   1.1798
  1.1798

 Free energy of the ion-electron system (eV)
  ---------------------------------------------------
  alpha Z        PSCENC =         2.34244495
  Ewald energy   TEWEN  =       708.81846088
  -1/2 Hartree   DENC   =     -1593.73198676
  -exchange  EXHF       =         0.00000000
  -V(xc)+E(xc)   XCENC  =        91.60019326
  PAW double counting   =       643.06584609     -649.32396226
  entropy T*S    EENTRO =         0.00000000
  eigenvalues    EBANDS =      -307.58885690
  atomic energy  EATOM  =      1052.80376628
  ---------------------------------------------------
  free energy    TOTEN  =       -52.01409446 eV

  energy without entropy =      -52.01409446  energy(sigma->0) =      -52.01409446


--------------------------------------------------------------------------------------------------------




----------------------------------------- Iteration    8(   3)  ---------------------------------------


    POTLOK:  cpu time    3.90: real time    3.90
    SETDIJ:  cpu time    0.11: real time    0.11
     EDDAV:  cpu time    5.63: real time    5.63
       DOS:  cpu time    0.00: real time    0.00
    --------------------------------------------
      LOOP:  cpu time    9.63: real time    9.65

 eigenvalue-minimisations  :   112
 total energy-change (2. order) : 0.2604717E-04  (-0.6080175E-05)
 number of electron      23.9999985 magnetization       0.0000000
 augmentation part        1.1601327 magnetization       0.0000000

 Free energy of the ion-electron system (eV)
  ---------------------------------------------------
  alpha Z        PSCENC =         2.34244495
  Ewald energy   TEWEN  =       708.81846088
  -1/2 Hartree   DENC   =     -1593.76769366
  -exchange  EXHF       =         0.00000000
  -V(xc)+E(xc)   XCENC  =        91.60247277
  PAW double counting   =       643.26858826     -649.52807232
  entropy T*S    EENTRO =         0.00000000
  eigenvalues    EBANDS =      -307.55403558
  atomic energy  EATOM  =      1052.80376628
  ---------------------------------------------------
  free energy    TOTEN  =       -52.01406841 eV

  energy without entropy =      -52.01406841  energy(sigma->0) =      -52.01406841


--------------------------------------------------------------------------------------------------------




 average (electrostatic) potential at core
  the test charge radii are     0.5201  0.6991  0.7215  0.7089
  (the norm of the test charge is              1.0000)
       1 -44.1384       2 -41.7107       3 -41.9409       4 -41.9858       5 -43.9520
       6 -60.8932       7 -58.5746       8 -79.4172       9 -74.0247
 
 
 
 E-fermi :  -4.4391     XC(G=0):  -1.2467     alpha+bet : -0.5006


 spin component 1

 k-point   1 :       0.0000    0.0000    0.0000
  band No.  band energies     occupation 
      1     -25.5164      1.00000
      2     -22.2754      1.00000
      3     -17.9906      1.00000
      4     -14.2193      1.00000
      5     -12.9433      1.00000
      6     -11.1395      1.00000
      7     -10.6522      1.00000
      8      -9.4393      1.00000
      9      -9.2797      1.00000
     10      -8.6078      1.00000
     11      -6.2673      1.00000
     12      -5.4462      1.00000
     13      -0.7117      0.00000
     14      -0.4388      0.00000
     15       0.6081      0.00000
     16       0.6416      0.00000
     17       1.0258      0.00000
     18       1.1047      0.00000
     19       1.1908      0.00000
     20       1.2762      0.00000
     21       1.9912      0.00000
     22       2.1565      0.00000
     23       2.1809      0.00000
     24       2.2997      0.00000
     25       2.3569      0.00000
     26       2.5348      0.00000

 spin component 2

 k-point   1 :       0.0000    0.0000    0.0000
  band No.  band energies     occupation 
      1     -25.5164      1.00000
      2     -22.2754      1.00000
      3     -17.9906      1.00000
      4     -14.2193      1.00000
      5     -12.9433      1.00000
      6     -11.1395      1.00000
      7     -10.6522      1.00000
      8      -9.4393      1.00000
      9      -9.2797      1.00000
     10      -8.6078      1.00000
     11      -6.2673      1.00000
     12      -5.4462      1.00000
     13      -0.7117      0.00000
     14      -0.4388      0.00000
     15       0.6081      0.00000
     16       0.6416      0.00000
     17       1.0258      0.00000
     18       1.1047      0.00000
     19       1.1908      0.00000
     20       1.2761      0.00000
     21       1.9912      0.00000
     22       2.1565      0.00000
     23       2.1809      0.00000
     24       2.2997      0.00000
     25       2.3569      0.00000
     26       2.5348      0.00000


--------------------------------------------------------------------------------------------------------


 soft charge-density along one line, spin component           1
         0         1         2         3         4         5         6         7         8         9
 total charge-density along one line
 
 soft charge-density along one line, spin component           2
         0         1         2         3         4         5         6         7         8         9
 total charge-density along one line
 
 pseudopotential strength for first ion, spin component:           1
 -2.377  -0.016  -0.002   0.000  -0.001
 -0.016   0.049  -0.002   0.000  -0.001
 -0.002  -0.002  -0.322  -0.001   0.002
  0.000   0.000  -0.001  -0.328   0.000
 -0.001  -0.001   0.002   0.000  -0.327
 pseudopotential strength for first ion, spin component:           2
 -2.377  -0.016  -0.002   0.000  -0.001
 -0.016   0.049  -0.002   0.000  -0.001
 -0.002  -0.002  -0.322  -0.001   0.002
  0.000   0.000  -0.001  -0.328   0.000
 -0.001  -0.001   0.002   0.000  -0.327
 total augmentation occupancy for first ion, spin component:           1
  1.695  -0.690   0.356  -0.073   0.104
 -0.690   0.364  -0.163   0.036  -0.048
  0.356  -0.163   0.081  -0.012   0.020
 -0.073   0.036  -0.012   0.028  -0.005
  0.104  -0.048   0.020  -0.005   0.017
 total augmentation occupancy for first ion, spin component:           2
  0.000   0.000   0.000   0.000   0.000
  0.000   0.000   0.000   0.000   0.000
  0.000   0.000   0.000   0.000   0.000
  0.000   0.000   0.000   0.000   0.000
  0.000   0.000   0.000   0.000   0.000


------------------------ aborting loop because EDIFF is reached ----------------------------------------


    CHARGE:  cpu time    0.58: real time    0.58
    FORLOC:  cpu time    0.31: real time    0.31
    FORNL :  cpu time    1.21: real time    1.21
    STRESS:  cpu time    2.66: real time    2.66
    FORHAR:  cpu time    0.65: real time    0.65
    MIXING:  cpu time    0.08: real time    0.08

  FORCE on cell =-STRESS in cart. coord.  units (eV):
  Direction    XX          YY          ZZ          XY          YZ          ZX
  --------------------------------------------------------------------------------------
  Alpha Z     2.34244     2.34244     2.34244
  Ewald     457.56660   549.58246  -298.33114    21.02006    -5.23304     5.50098
  Hartree   695.79442   696.55897   201.44591     2.59258     1.30455     0.55373
  E(xc)     -95.99444   -95.42871   -97.32107     0.13442    -0.03361     0.02683
  Local   -1416.79917 -1479.94837  -186.73824   -15.83229     1.59563    -4.85101
  n-local   -60.61900   -61.66099   -58.73970    -0.49971    -0.17917     0.00495
  augment     8.13634     6.52388     7.58757    -0.47445     0.05698    -0.01411
  Kinetic   404.87921   377.39206   424.72011    -6.94637     2.50310    -1.22305
  Fock        0.00000     0.00000     0.00000     0.00000     0.00000     0.00000
  -------------------------------------------------------------------------------------
  Total      -4.69360    -4.63825    -5.03411    -0.00576     0.01444    -0.00168
  in kB      -7.51998    -7.43131    -8.06554    -0.00922     0.02313    -0.00269
  external pressure =       -7.67 kB  Pullay stress =        0.00 kB


 VOLUME and BASIS-vectors are now :
 -----------------------------------------------------------------------------
  energy-cutoff  :      350.00
  volume of cell :     1000.00
      direct lattice vectors                 reciprocal lattice vectors
    10.000000000  0.000000000  0.000000000     0.100000000  0.000000000  0.000000000
     0.000000000 10.000000000  0.000000000     0.000000000  0.100000000  0.000000000
     0.000000000  0.000000000 10.000000000     0.000000000  0.000000000  0.100000000

  length of vectors
    10.000000000 10.000000000 10.000000000     0.100000000  0.100000000  0.100000000


 FORCES acting on ions
    electron-ion (+dipol)            ewald-force                    non-local-force                 convergence-correction
 -----------------------------------------------------------------------------------------------
   0.594E+01 0.869E+02 -.150E+02   -.791E+01 -.938E+02 0.164E+02   0.201E+01 0.685E+01 -.141E+01   -.383E-03 -.139E-02 -.444E-02
   0.554E+02 -.430E+02 0.104E+02   -.586E+02 0.475E+02 -.113E+02   0.319E+01 -.451E+01 0.888E+00   0.281E-02 0.293E-02 -.436E-03
   0.306E+02 0.455E+02 0.448E+02   -.317E+02 -.492E+02 -.486E+02   0.100E+01 0.370E+01 0.383E+01   0.352E-02 -.161E-02 -.284E-02
   0.336E+02 0.282E+02 -.560E+02   -.350E+02 -.303E+02 0.607E+02   0.134E+01 0.211E+01 -.477E+01   0.185E-02 -.262E-03 0.197E-02
   -.886E+02 -.233E+01 -.107E+02   0.957E+02 0.416E+01 0.117E+02   -.699E+01 -.186E+01 -.102E+01   0.365E-03 0.101E-02 -.450E-02
   0.505E+02 0.495E+02 0.440E+00   -.553E+02 -.500E+02 0.407E-02   0.471E+01 0.435E+00 -.427E+00   -.520E-02 -.222E-02 -.909E-02
   0.142E+03 0.369E+02 0.506E+00   -.143E+03 -.361E+02 -.902E+00   0.992E+00 -.777E+00 0.393E+00   0.249E-01 0.109E-01 -.360E-02
   -.844E+02 -.310E+03 -.275E+01   0.983E+02 0.362E+03 0.322E+01   -.138E+02 -.522E+02 -.472E+00   0.199E-01 0.565E-01 0.627E-03
   -.137E+03 0.153E+03 0.221E+02   0.137E+03 -.154E+03 -.313E+02   -.807E+00 0.707E+00 0.934E+01   -.470E-02 -.806E-02 -.501E-01
 -----------------------------------------------------------------------------------------------
   0.834E+01 0.454E+02 -.628E+01   0.000E+00 -.284E-13 -.711E-14   -.840E+01 -.455E+02 0.635E+01   0.430E-01 0.578E-01 -.724E-01
 
 
 POSITION                                       TOTAL-FORCE (eV/Angst)
 -----------------------------------------------------------------------------------
      5.72778      3.41504      5.06571         0.029165      0.014602     -0.053464
      3.01476      5.84171      4.72399        -0.013494     -0.027451      0.002147
      3.45704      4.20232      4.12439        -0.029616      0.001409      0.007616
      3.38732      4.52258      5.87750        -0.016671      0.006829     -0.007231
      6.98930      4.61814      5.01181         0.027817     -0.026046     -0.011502
      5.10098      5.39986      4.89737        -0.127596     -0.141310      0.008094
      3.64744      4.96237      4.89940         0.080539      0.043926     -0.007060
      5.44746      6.58137      4.90855         0.046092      0.101188     -0.006018
      6.01299      4.37055      4.85890         0.003764      0.026853      0.067419
 -----------------------------------------------------------------------------------
    total drift:                               -0.009975      0.000031     -0.001759


--------------------------------------------------------------------------------------------------------



  FREE ENERGIE OF THE ION-ELECTRON SYSTEM (eV)
  ---------------------------------------------------
  free  energy   TOTEN  =       -52.014068 eV

  energy  without entropy=      -52.014068  energy(sigma->0) =      -52.014068
 
 d Force = 0.4848938E-03[-0.814E-04, 0.105E-02]  d Energy = 0.4464508E-03 0.384E-04
 d Force =-0.3140749E+00[-0.313E+00,-0.315E+00]  d Ewald  =-0.3140768E+00 0.182E-05


--------------------------------------------------------------------------------------------------------


    POTLOK:  cpu time    4.03: real time    4.03


--------------------------------------------------------------------------------------------------------


 Conjugate gradient step on ions:
 trial-energy change:   -0.000446  1 .order   -0.000485   -0.001051    0.000081
  (g-gl).g = 0.138E-02      g.g   = 0.149E-02  gl.gl    = 0.411E-02
 g(Force)  = 0.149E-02   g(Stress)= 0.000E+00 ortho     = 0.469E-05
 gamma     =   0.33488
 trial     =   0.70560
 opt step  =   0.65488  (harmonic =   0.65488) maximal distance =0.00361842
 next E    =   -52.014110   (d E  =  -0.00049)


--------------------------------------------------------------------------------------------------------


 writing wavefunctions
     LOOP+:  cpu time   40.64: real time   40.97
    4ORBIT:  cpu time    0.00: real time    0.00

 total amount of memory used by VASP on root node   174395. kBytes
========================================================================

   base      :      30000. kBytes
   nonl-proj :       5918. kBytes
   fftplans  :      30736. kBytes
   grid      :      95330. kBytes
   one-center:         55. kBytes
   wavefun   :      12356. kBytes
 
  
  
 General timing and accounting informations for this job:
 ========================================================
  
                  Total CPU time used (sec):      650.068
                            User time (sec):      646.886
                          System time (sec):        3.183
                         Elapsed time (sec):      654.452
  
                   Maximum memory used (kb):           0.
                   Average memory used (kb):           0.
  
                          Minor page faults:      1026612
                          Major page faults:            0
                 Voluntary context switches:         4043
