 running on    1 nodes
 distr:  one band on    1 nodes,    1 groups
 vasp.5.2.12 11Nov11 complex                                                    
  
 POSCAR found :  3 types and       9 ions
 LDA part: xc-table for Pade appr. of Perdew
 POSCAR, INCAR and KPOINTS ok, starting setup
 WARNING: small aliasing (wrap around) errors must be expected
 FFT: planning ...(           2 )
 WAVECAR not read
 entering main loop
       N       E                     dE             d eps       ncg     rms          rms(c)
DAV:   1     0.910083393978E+02    0.91008E+02   -0.51946E+03    96   0.527E+02
DAV:   2    -0.151050488979E+02   -0.10611E+03   -0.10362E+03   104   0.140E+02
DAV:   3    -0.390658304350E+02   -0.23961E+02   -0.23949E+02    64   0.679E+01
DAV:   4    -0.402688897508E+02   -0.12031E+01   -0.12026E+01    80   0.171E+01
DAV:   5    -0.402899892265E+02   -0.21099E-01   -0.21093E-01    88   0.203E+00    0.204E+01
DAV:   6    -0.186591396920E+02    0.21631E+02   -0.59531E+01    88   0.446E+01    0.832E+00
DAV:   7    -0.387134777901E+02   -0.20054E+02   -0.20550E+01    80   0.217E+01    0.469E+00
DAV:   8    -0.420216772216E+02   -0.33082E+01   -0.11649E+00    64   0.783E+00    0.258E+00
DAV:   9    -0.465070700820E+02   -0.44854E+01   -0.28701E+00    88   0.754E+00    0.632E-01
DAV:  10    -0.467847477715E+02   -0.27768E+00   -0.14615E-01    72   0.191E+00    0.360E-01
DAV:  11    -0.468254821493E+02   -0.40734E-01   -0.32833E-02    96   0.114E+00    0.233E-01
DAV:  12    -0.468269662180E+02   -0.14841E-02   -0.37389E-03    64   0.492E-01    0.135E-01
DAV:  13    -0.468282934191E+02   -0.13272E-02   -0.98244E-03    64   0.681E-01    0.132E-01
DAV:  14    -0.468313889982E+02   -0.30956E-02   -0.30382E-03    64   0.394E-01    0.601E-02
DAV:  15    -0.468395696916E+02   -0.81807E-02   -0.21339E-03    88   0.272E-01    0.567E-02
DAV:  16    -0.468432869163E+02   -0.37172E-02   -0.10328E-03    64   0.179E-01    0.264E-02
DAV:  17    -0.468460335057E+02   -0.27466E-02   -0.31936E-04    64   0.110E-01    0.179E-02
DAV:  18    -0.468480821526E+02   -0.20486E-02   -0.19999E-04    64   0.691E-02    0.115E-02
DAV:  19    -0.468491047045E+02   -0.10226E-02   -0.12532E-04    64   0.482E-02    0.657E-03
DAV:  20    -0.468494016835E+02   -0.29698E-03   -0.24144E-05    80   0.263E-02    0.336E-03
DAV:  21    -0.468496195073E+02   -0.21782E-03   -0.19682E-05    80   0.197E-02    0.189E-03
DAV:  22    -0.468496577502E+02   -0.38243E-04   -0.31245E-06    80   0.961E-03
   1 F= -.46849658E+02 E0= -.46849658E+02  d E =-.468497E+02  mag=     0.0000
 curvature:   0.00 expect dE= 0.000E+00 dE for cont linesearch  0.000E+00
 trial: gam= 0.00000 g(F)=  0.408E-01 g(S)=  0.000E+00 ort = 0.000E+00 (trialstep = 0.100E+01)
 search vector abs. value=  0.408E-01
 bond charge predicted
       N       E                     dE             d eps       ncg     rms          rms(c)
DAV:   1    -0.468364058577E+02    0.13214E-01   -0.32547E+00    64   0.141E+01    0.494E-01
DAV:   2    -0.468386662812E+02   -0.22604E-02   -0.76396E-02    88   0.197E+00    0.311E-01
DAV:   3    -0.468368737525E+02    0.17925E-02   -0.67857E-03    72   0.626E-01    0.981E-02
DAV:   4    -0.468369243978E+02   -0.50645E-04   -0.97319E-04    88   0.225E-01
   2 F= -.46836924E+02 E0= -.46836924E+02  d E =0.127334E-01  mag=     0.0000
 trial-energy change:    0.012733  1 .order    0.012257   -0.040842    0.065356
 step:   0.3783(harm=  0.3846)  dis= 0.00558  next Energy=   -46.857356 (dE=-0.770E-02)
 bond charge predicted
       N       E                     dE             d eps       ncg     rms          rms(c)
DAV:   1    -0.468569295097E+02   -0.20056E-01   -0.12639E+00    64   0.875E+00    0.304E-01
DAV:   2    -0.468579960402E+02   -0.10665E-02   -0.30106E-02    96   0.125E+00    0.198E-01
DAV:   3    -0.468573675757E+02    0.62846E-03   -0.29400E-03    80   0.389E-01    0.562E-02
DAV:   4    -0.468574085942E+02   -0.41019E-04   -0.34890E-04    80   0.133E-01
   3 F= -.46857409E+02 E0= -.46857409E+02  d E =-.775084E-02  mag=     0.0000
 curvature:  -0.19 expect dE=-0.189E-02 dE for cont linesearch -0.109E-06
 trial: gam= 0.23676 g(F)=  0.982E-02 g(S)=  0.000E+00 ort = 0.152E-03 (trialstep = 0.876E+00)
 search vector abs. value=  0.122E-01
 bond charge predicted
       N       E                     dE             d eps       ncg     rms          rms(c)
DAV:   1    -0.468603449285E+02   -0.29774E-02   -0.55345E-01    64   0.571E+00    0.221E-01
DAV:   2    -0.468598694374E+02    0.47549E-03   -0.90071E-03    96   0.701E-01    0.119E-01
DAV:   3    -0.468596391276E+02    0.23031E-03   -0.23827E-03    80   0.281E-01    0.365E-02
DAV:   4    -0.468596398860E+02   -0.75836E-06   -0.21528E-04    64   0.936E-02
   4 F= -.46859640E+02 E0= -.46859640E+02  d E =-.223129E-02  mag=     0.0000
 trial-energy change:   -0.002231  1 .order   -0.002347   -0.008632    0.003938
 step:   0.6013(harm=  0.6013)  dis= 0.00426  next Energy=   -46.860373 (dE=-0.296E-02)
 bond charge predicted
       N       E                     dE             d eps       ncg     rms          rms(c)
DAV:   1    -0.468603744213E+02   -0.73529E-03   -0.55476E-02    64   0.180E+00    0.707E-02
DAV:   2    -0.468603287151E+02    0.45706E-04   -0.95304E-04    80   0.229E-01
   5 F= -.46860329E+02 E0= -.46860329E+02  d E =-.292012E-02  mag=     0.0000
 curvature:  -0.37 expect dE=-0.978E-03 dE for cont linesearch -0.101E-04
 trial: gam= 0.33192 g(F)=  0.263E-02 g(S)=  0.000E+00 ort =-0.575E-03 (trialstep = 0.821E+00)
 search vector abs. value=  0.359E-02
 bond charge predicted
       N       E                     dE             d eps       ncg     rms          rms(c)
DAV:   1    -0.468600243660E+02    0.35006E-03   -0.38553E-01    64   0.488E+00    0.136E-01
DAV:   2    -0.468604825424E+02   -0.45818E-03   -0.84078E-03    80   0.652E-01    0.815E-02
DAV:   3    -0.468604370955E+02    0.45447E-04   -0.66349E-04    64   0.206E-01
   6 F= -.46860437E+02 E0= -.46860437E+02  d E =-.108380E-03  mag=     0.0000
 trial-energy change:   -0.000108  1 .order   -0.000003   -0.002003    0.001997
 step:   0.4111(harm=  0.4111)  dis= 0.00310  next Energy=   -46.860830 (dE=-0.502E-03)
 bond charge predicted
       N       E                     dE             d eps       ncg     rms          rms(c)
DAV:   1    -0.468607218269E+02   -0.23928E-03   -0.95108E-02    64   0.243E+00    0.632E-02
DAV:   2    -0.468608912681E+02   -0.16944E-03   -0.23446E-03    96   0.344E-01    0.331E-02
DAV:   3    -0.468608781053E+02    0.13163E-04   -0.11269E-04    64   0.858E-02
   7 F= -.46860878E+02 E0= -.46860878E+02  d E =-.549390E-03  mag=     0.0000
 curvature:  -0.30 expect dE=-0.417E-03 dE for cont linesearch -0.459E-05
 trial: gam= 0.42513 g(F)=  0.138E-02 g(S)=  0.000E+00 ort = 0.234E-03 (trialstep = 0.739E+00)
 search vector abs. value=  0.223E-02
 reached required accuracy - stopping structural energy minimisation
 writing wavefunctions
NPROCS =  1
