   9   9   0   0
  0.1111111E+03  0.1000000E-08  0.1000000E-08  0.1000000E-08  0.5000000E-15
  1.000000000000000E-004
  CAR 
 unknown system                          
      3.08132012    -27.13627164  301     -4.97591743      1.00000000
    -27.136  0.0000E+00  0.0000E+00  0.0000E+00  0.0000E+00
    -27.036  0.0000E+00  0.0000E+00  0.0000E+00  0.0000E+00
    -26.935  0.0000E+00  0.0000E+00  0.0000E+00  0.0000E+00
    -26.834  0.0000E+00  0.0000E+00  0.0000E+00  0.0000E+00
    -26.733  0.0000E+00  0.0000E+00  0.0000E+00  0.0000E+00
    -26.633  0.0000E+00  0.0000E+00  0.0000E+00  0.0000E+00
    -26.532  0.0000E+00  0.0000E+00  0.0000E+00  0.0000E+00
    -26.431  0.0000E+00  0.0000E+00  0.0000E+00  0.0000E+00
    -26.330  0.0000E+00  0.0000E+00  0.0000E+00  0.0000E+00
    -26.230  0.5236E-14  0.5236E-14  0.5274E-15  0.5274E-15
    -26.129  0.1098E-11  0.1098E-11  0.1111E-12  0.1111E-12
    -26.028  0.1396E-09  0.1396E-09  0.1417E-10  0.1417E-10
    -25.928  0.1079E-07  0.1079E-07  0.1101E-08  0.1101E-08
    -25.827  0.5075E-06  0.5074E-06  0.5222E-07  0.5221E-07
    -25.726  0.1455E-04  0.1454E-04  0.1517E-05  0.1517E-05
    -25.625  0.2545E-03  0.2544E-03  0.2715E-04  0.2715E-04
    -25.525  0.2722E-02  0.2721E-02  0.3013E-03  0.3013E-03
    -25.424  0.1783E-01  0.1783E-01  0.2097E-02  0.2097E-02
    -25.323  0.7161E-01  0.7161E-01  0.9310E-02  0.9310E-02
    -25.222  0.1767E+00  0.1767E+00  0.2710E-01  0.2710E-01
    -25.122  0.2679E+00  0.2679E+00  0.5408E-01  0.5408E-01
    -25.021  0.2497E+00  0.2498E+00  0.7924E-01  0.7924E-01
    -24.920  0.1432E+00  0.1432E+00  0.9366E-01  0.9366E-01
    -24.820  0.5044E-01  0.5044E-01  0.9874E-01  0.9874E-01
    -24.719  0.1091E-01  0.1091E-01  0.9984E-01  0.9984E-01
    -24.618  0.1446E-02  0.1446E-02  0.9999E-01  0.9999E-01
    -24.517  0.1174E-03  0.1174E-03  0.1000E+00  0.1000E+00
    -24.417  0.5821E-05  0.5822E-05  0.1000E+00  0.1000E+00
    -24.316  0.1761E-06  0.1762E-06  0.1000E+00  0.1000E+00
    -24.215  0.3246E-08  0.3247E-08  0.1000E+00  0.1000E+00
    -24.115  0.3639E-10  0.3640E-10  0.1000E+00  0.1000E+00
    -24.014  0.2478E-12  0.2478E-12  0.1000E+00  0.1000E+00
    -23.913  0.1102E-14  0.1102E-14  0.1000E+00  0.1000E+00
    -23.812  0.0000E+00  0.0000E+00  0.1000E+00  0.1000E+00
    -23.712  0.0000E+00  0.0000E+00  0.1000E+00  0.1000E+00
    -23.611  0.0000E+00  0.0000E+00  0.1000E+00  0.1000E+00
    -23.510  0.0000E+00  0.0000E+00  0.1000E+00  0.1000E+00
    -23.409  0.0000E+00  0.0000E+00  0.1000E+00  0.1000E+00
    -23.309  0.0000E+00  0.0000E+00  0.1000E+00  0.1000E+00
    -23.208  0.0000E+00  0.0000E+00  0.1000E+00  0.1000E+00
    -23.107  0.0000E+00  0.0000E+00  0.1000E+00  0.1000E+00
    -23.007  0.0000E+00  0.0000E+00  0.1000E+00  0.1000E+00
    -22.906  0.0000E+00  0.0000E+00  0.1000E+00  0.1000E+00
    -22.805  0.0000E+00  0.0000E+00  0.1000E+00  0.1000E+00
    -22.704  0.0000E+00  0.0000E+00  0.1000E+00  0.1000E+00
    -22.604  0.0000E+00  0.0000E+00  0.1000E+00  0.1000E+00
    -22.503  0.0000E+00  0.0000E+00  0.1000E+00  0.1000E+00
    -22.402  0.0000E+00  0.0000E+00  0.1000E+00  0.1000E+00
    -22.301  0.0000E+00  0.0000E+00  0.1000E+00  0.1000E+00
    -22.201  0.0000E+00  0.0000E+00  0.1000E+00  0.1000E+00
    -22.100  0.0000E+00  0.0000E+00  0.1000E+00  0.1000E+00
    -21.999  0.0000E+00  0.0000E+00  0.1000E+00  0.1000E+00
    -21.899  0.0000E+00  0.0000E+00  0.1000E+00  0.1000E+00
    -21.798  0.0000E+00  0.0000E+00  0.1000E+00  0.1000E+00
    -21.697  0.0000E+00  0.0000E+00  0.1000E+00  0.1000E+00
    -21.596  0.0000E+00  0.0000E+00  0.1000E+00  0.1000E+00
    -21.496  0.0000E+00  0.0000E+00  0.1000E+00  0.1000E+00
    -21.395  0.0000E+00  0.0000E+00  0.1000E+00  0.1000E+00
    -21.294  0.0000E+00  0.0000E+00  0.1000E+00  0.1000E+00
    -21.193  0.0000E+00  0.0000E+00  0.1000E+00  0.1000E+00
    -21.093  0.0000E+00  0.0000E+00  0.1000E+00  0.1000E+00
    -20.992  0.0000E+00  0.0000E+00  0.1000E+00  0.1000E+00
    -20.891  0.0000E+00  0.0000E+00  0.1000E+00  0.1000E+00
    -20.791  0.0000E+00  0.0000E+00  0.1000E+00  0.1000E+00
    -20.690  0.0000E+00  0.0000E+00  0.1000E+00  0.1000E+00
    -20.589  0.0000E+00  0.0000E+00  0.1000E+00  0.1000E+00
    -20.488  0.0000E+00  0.0000E+00  0.1000E+00  0.1000E+00
    -20.388  0.0000E+00  0.0000E+00  0.1000E+00  0.1000E+00
    -20.287  0.0000E+00  0.0000E+00  0.1000E+00  0.1000E+00
    -20.186  0.0000E+00  0.0000E+00  0.1000E+00  0.1000E+00
    -20.086  0.0000E+00  0.0000E+00  0.1000E+00  0.1000E+00
    -19.985  0.0000E+00  0.0000E+00  0.1000E+00  0.1000E+00
    -19.884  0.0000E+00  0.0000E+00  0.1000E+00  0.1000E+00
    -19.783  0.0000E+00  0.0000E+00  0.1000E+00  0.1000E+00
    -19.683  0.0000E+00  0.0000E+00  0.1000E+00  0.1000E+00
    -19.582  0.0000E+00  0.0000E+00  0.1000E+00  0.1000E+00
    -19.481  0.0000E+00  0.0000E+00  0.1000E+00  0.1000E+00
    -19.380  0.7164E-15  0.7164E-15  0.1000E+00  0.1000E+00
    -19.280  0.1769E-12  0.1767E-12  0.1000E+00  0.1000E+00
    -19.179  0.2682E-10  0.2680E-10  0.1000E+00  0.1000E+00
    -19.078  0.2470E-08  0.2469E-08  0.1000E+00  0.1000E+00
    -18.978  0.1384E-06  0.1383E-06  0.1000E+00  0.1000E+00
    -18.877  0.4720E-05  0.4718E-05  0.1000E+00  0.1000E+00
    -18.776  0.9824E-04  0.9821E-04  0.1000E+00  0.1000E+00
    -18.675  0.1249E-02  0.1249E-02  0.1001E+00  0.1001E+00
    -18.575  0.9724E-02  0.9722E-02  0.1011E+00  0.1011E+00
    -18.474  0.4639E-01  0.4639E-01  0.1058E+00  0.1058E+00
    -18.373  0.1359E+00  0.1359E+00  0.1195E+00  0.1195E+00
    -18.272  0.2445E+00  0.2445E+00  0.1441E+00  0.1441E+00
    -18.172  0.2706E+00  0.2706E+00  0.1714E+00  0.1714E+00
    -18.071  0.1841E+00  0.1841E+00  0.1899E+00  0.1899E+00
    -17.970  0.7700E-01  0.7702E-01  0.1977E+00  0.1977E+00
    -17.870  0.1978E-01  0.1978E-01  0.1997E+00  0.1997E+00
    -17.769  0.3116E-02  0.3117E-02  0.2000E+00  0.2000E+00
    -17.668  0.3007E-03  0.3008E-03  0.2000E+00  0.2000E+00
    -17.567  0.1774E-04  0.1775E-04  0.2000E+00  0.2000E+00
    -17.467  0.6389E-06  0.6392E-06  0.2000E+00  0.2000E+00
    -17.366  0.1402E-07  0.1403E-07  0.2000E+00  0.2000E+00
    -17.265  0.1873E-09  0.1875E-09  0.2000E+00  0.2000E+00
    -17.164  0.1521E-11  0.1522E-11  0.2000E+00  0.2000E+00
    -17.064  0.7495E-14  0.7495E-14  0.2000E+00  0.2000E+00
    -16.963  0.0000E+00  0.0000E+00  0.2000E+00  0.2000E+00
    -16.862  0.0000E+00  0.0000E+00  0.2000E+00  0.2000E+00
    -16.762  0.0000E+00  0.0000E+00  0.2000E+00  0.2000E+00
    -16.661  0.0000E+00  0.0000E+00  0.2000E+00  0.2000E+00
    -16.560  0.0000E+00  0.0000E+00  0.2000E+00  0.2000E+00
    -16.459  0.0000E+00  0.0000E+00  0.2000E+00  0.2000E+00
    -16.359  0.0000E+00  0.0000E+00  0.2000E+00  0.2000E+00
    -16.258  0.0000E+00  0.0000E+00  0.2000E+00  0.2000E+00
    -16.157  0.0000E+00  0.0000E+00  0.2000E+00  0.2000E+00
    -16.056  0.0000E+00  0.0000E+00  0.2000E+00  0.2000E+00
    -15.956  0.0000E+00  0.0000E+00  0.2000E+00  0.2000E+00
    -15.855  0.0000E+00  0.0000E+00  0.2000E+00  0.2000E+00
    -15.754  0.1268E-14  0.1268E-14  0.2000E+00  0.2000E+00
    -15.654  0.3058E-12  0.3056E-12  0.2000E+00  0.2000E+00
    -15.553  0.4400E-10  0.4398E-10  0.2000E+00  0.2000E+00
    -15.452  0.3847E-08  0.3846E-08  0.2000E+00  0.2000E+00
    -15.351  0.2046E-06  0.2045E-06  0.2000E+00  0.2000E+00
    -15.251  0.6630E-05  0.6628E-05  0.2000E+00  0.2000E+00
    -15.150  0.1311E-03  0.1310E-03  0.2000E+00  0.2000E+00
    -15.049  0.1583E-02  0.1583E-02  0.2002E+00  0.2002E+00
    -14.949  0.1171E-01  0.1171E-01  0.2014E+00  0.2014E+00
    -14.848  0.5309E-01  0.5309E-01  0.2067E+00  0.2067E+00
    -14.747  0.1478E+00  0.1478E+00  0.2216E+00  0.2216E+00
    -14.646  0.2528E+00  0.2528E+00  0.2471E+00  0.2470E+00
    -14.546  0.2659E+00  0.2659E+00  0.2738E+00  0.2738E+00
    -14.445  0.1720E+00  0.1720E+00  0.2912E+00  0.2912E+00
    -14.344  0.6837E-01  0.6837E-01  0.2980E+00  0.2980E+00
    -14.243  0.1669E-01  0.1669E-01  0.2997E+00  0.2997E+00
    -14.143  0.2498E-02  0.2499E-02  0.3000E+00  0.3000E+00
    -14.042  0.2290E-03  0.2291E-03  0.3000E+00  0.3000E+00
    -13.941  0.1284E-04  0.1284E-04  0.3000E+00  0.3000E+00
    -13.841  0.4390E-06  0.4392E-06  0.3000E+00  0.3000E+00
    -13.740  0.9151E-08  0.9155E-08  0.3000E+00  0.3000E+00
    -13.639  0.1161E-09  0.1161E-09  0.3000E+00  0.3000E+00
    -13.538  0.8952E-12  0.8956E-12  0.3000E+00  0.3000E+00
    -13.438  0.1803E-12  0.1802E-12  0.3000E+00  0.3000E+00
    -13.337  0.2671E-10  0.2670E-10  0.3000E+00  0.3000E+00
    -13.236  0.2461E-08  0.2460E-08  0.3000E+00  0.3000E+00
    -13.135  0.1379E-06  0.1379E-06  0.3000E+00  0.3000E+00
    -13.035  0.4707E-05  0.4706E-05  0.3000E+00  0.3000E+00
    -12.934  0.9800E-04  0.9799E-04  0.3000E+00  0.3000E+00
    -12.833  0.1247E-02  0.1247E-02  0.3001E+00  0.3001E+00
    -12.733  0.9708E-02  0.9708E-02  0.3011E+00  0.3011E+00
    -12.632  0.4634E-01  0.4634E-01  0.3058E+00  0.3058E+00
    -12.531  0.1358E+00  0.1358E+00  0.3195E+00  0.3195E+00
    -12.430  0.2445E+00  0.2445E+00  0.3441E+00  0.3441E+00
    -12.330  0.2706E+00  0.2706E+00  0.3713E+00  0.3713E+00
    -12.229  0.1842E+00  0.1842E+00  0.3899E+00  0.3899E+00
    -12.128  0.7708E-01  0.7708E-01  0.3977E+00  0.3977E+00
    -12.027  0.1981E-01  0.1981E-01  0.3997E+00  0.3997E+00
    -11.927  0.3122E-02  0.3122E-02  0.4000E+00  0.4000E+00
    -11.826  0.3014E-03  0.3014E-03  0.4000E+00  0.4000E+00
    -11.725  0.1787E-04  0.1787E-04  0.4000E+00  0.4000E+00
    -11.625  0.3577E-05  0.3577E-05  0.4000E+00  0.4000E+00
    -11.524  0.6560E-04  0.6558E-04  0.4000E+00  0.4000E+00
    -11.423  0.8948E-03  0.8947E-03  0.4001E+00  0.4001E+00
    -11.322  0.7471E-02  0.7470E-02  0.4008E+00  0.4008E+00
    -11.222  0.3823E-01  0.3822E-01  0.4047E+00  0.4047E+00
    -11.121  0.1200E+00  0.1200E+00  0.4168E+00  0.4168E+00
    -11.020  0.2316E+00  0.2316E+00  0.4401E+00  0.4401E+00
    -10.919  0.2748E+00  0.2748E+00  0.4678E+00  0.4678E+00
    -10.819  0.2004E+00  0.2004E+00  0.4880E+00  0.4880E+00
    -10.718  0.8988E-01  0.8988E-01  0.4970E+00  0.4970E+00
    -10.617  0.2476E-01  0.2476E-01  0.4995E+00  0.4995E+00
    -10.517  0.4183E-02  0.4184E-02  0.5000E+00  0.5000E+00
    -10.416  0.4330E-03  0.4331E-03  0.5000E+00  0.5000E+00
    -10.315  0.2741E-04  0.2742E-04  0.5000E+00  0.5000E+00
    -10.214  0.1093E-05  0.1093E-05  0.5000E+00  0.5000E+00
    -10.114  0.1381E-05  0.1381E-05  0.5000E+00  0.5000E+00
    -10.013  0.3388E-04  0.3387E-04  0.5000E+00  0.5000E+00
     -9.912  0.5168E-03  0.5167E-03  0.5001E+00  0.5001E+00
     -9.812  0.4822E-02  0.4821E-02  0.5005E+00  0.5005E+00
     -9.711  0.2757E-01  0.2756E-01  0.5033E+00  0.5033E+00
     -9.610  0.9668E-01  0.9667E-01  0.5131E+00  0.5131E+00
     -9.509  0.2083E+00  0.2083E+00  0.5340E+00  0.5340E+00
     -9.409  0.2764E+00  0.2764E+00  0.5619E+00  0.5619E+00
     -9.308  0.2301E+00  0.2301E+00  0.5851E+00  0.5851E+00
     -9.207  0.1426E+00  0.1426E+00  0.5994E+00  0.5994E+00
     -9.106  0.1373E+00  0.1373E+00  0.6133E+00  0.6133E+00
     -9.006  0.2213E+00  0.2213E+00  0.6355E+00  0.6355E+00
     -8.905  0.2771E+00  0.2771E+00  0.6635E+00  0.6635E+00
     -8.804  0.2203E+00  0.2203E+00  0.6857E+00  0.6857E+00
     -8.704  0.1192E+00  0.1192E+00  0.6977E+00  0.6977E+00
     -8.603  0.8887E-01  0.8887E-01  0.7066E+00  0.7066E+00
     -8.502  0.1604E+00  0.1604E+00  0.7228E+00  0.7228E+00
     -8.401  0.2576E+00  0.2576E+00  0.7487E+00  0.7487E+00
     -8.301  0.2627E+00  0.2627E+00  0.7752E+00  0.7752E+00
     -8.200  0.1652E+00  0.1652E+00  0.7918E+00  0.7918E+00
     -8.099  0.6466E-01  0.6466E-01  0.7983E+00  0.7983E+00
     -7.998  0.2247E-01  0.2247E-01  0.8006E+00  0.8006E+00
     -7.898  0.3995E-01  0.3994E-01  0.8046E+00  0.8046E+00
     -7.797  0.1193E+00  0.1193E+00  0.8166E+00  0.8166E+00
     -7.696  0.2308E+00  0.2308E+00  0.8399E+00  0.8399E+00
     -7.596  0.2749E+00  0.2749E+00  0.8676E+00  0.8676E+00
     -7.495  0.2014E+00  0.2015E+00  0.8879E+00  0.8879E+00
     -7.394  0.9073E-01  0.9074E-01  0.8970E+00  0.8970E+00
     -7.293  0.2510E-01  0.2510E-01  0.8995E+00  0.8995E+00
     -7.193  0.4260E-02  0.4261E-02  0.9000E+00  0.9000E+00
     -7.092  0.4430E-03  0.4431E-03  0.9000E+00  0.9000E+00
     -6.991  0.2817E-04  0.2818E-04  0.9000E+00  0.9000E+00
     -6.890  0.1094E-05  0.1094E-05  0.9000E+00  0.9000E+00
     -6.790  0.2649E-07  0.2650E-07  0.9000E+00  0.9000E+00
     -6.689  0.3975E-07  0.3975E-07  0.9000E+00  0.9000E+00
     -6.588  0.1579E-05  0.1579E-05  0.9000E+00  0.9000E+00
     -6.488  0.3859E-04  0.3859E-04  0.9000E+00  0.9000E+00
     -6.387  0.5760E-03  0.5760E-03  0.9001E+00  0.9001E+00
     -6.286  0.5260E-02  0.5260E-02  0.9006E+00  0.9006E+00
     -6.185  0.2943E-01  0.2943E-01  0.9036E+00  0.9036E+00
     -6.085  0.1010E+00  0.1010E+00  0.9137E+00  0.9137E+00
     -5.984  0.2130E+00  0.2130E+00  0.9352E+00  0.9352E+00
     -5.883  0.2762E+00  0.2762E+00  0.9630E+00  0.9630E+00
     -5.783  0.2202E+00  0.2202E+00  0.9852E+00  0.9852E+00
     -5.682  0.1079E+00  0.1079E+00  0.9960E+00  0.9960E+00
     -5.581  0.3249E-01  0.3249E-01  0.9993E+00  0.9993E+00
     -5.480  0.6003E-02  0.6003E-02  0.9999E+00  0.9999E+00
     -5.380  0.6797E-03  0.6796E-03  0.1000E+01  0.1000E+01
     -5.279  0.4708E-04  0.4707E-04  0.1000E+01  0.1000E+01
     -5.178  0.1992E-05  0.1991E-05  0.1000E+01  0.1000E+01
     -5.077  0.5137E-07  0.5137E-07  0.1000E+01  0.1000E+01
     -4.977  0.8069E-09  0.8068E-09  0.1000E+01  0.1000E+01
     -4.876  0.7705E-11  0.7704E-11  0.1000E+01  0.1000E+01
     -4.775  0.4464E-13  0.4453E-13  0.1000E+01  0.1000E+01
     -4.675  0.2204E-15  0.2204E-15  0.1000E+01  0.1000E+01
     -4.574  0.0000E+00  0.0000E+00  0.1000E+01  0.1000E+01
     -4.473  0.0000E+00  0.0000E+00  0.1000E+01  0.1000E+01
     -4.372  0.0000E+00  0.0000E+00  0.1000E+01  0.1000E+01
     -4.272  0.0000E+00  0.0000E+00  0.1000E+01  0.1000E+01
     -4.171  0.0000E+00  0.0000E+00  0.1000E+01  0.1000E+01
     -4.070  0.0000E+00  0.0000E+00  0.1000E+01  0.1000E+01
     -3.969  0.0000E+00  0.0000E+00  0.1000E+01  0.1000E+01
     -3.869  0.0000E+00  0.0000E+00  0.1000E+01  0.1000E+01
     -3.768  0.0000E+00  0.0000E+00  0.1000E+01  0.1000E+01
     -3.667  0.0000E+00  0.0000E+00  0.1000E+01  0.1000E+01
     -3.567  0.0000E+00  0.0000E+00  0.1000E+01  0.1000E+01
     -3.466  0.0000E+00  0.0000E+00  0.1000E+01  0.1000E+01
     -3.365  0.0000E+00  0.0000E+00  0.1000E+01  0.1000E+01
     -3.264  0.0000E+00  0.0000E+00  0.1000E+01  0.1000E+01
     -3.164  0.0000E+00  0.0000E+00  0.1000E+01  0.1000E+01
     -3.063  0.0000E+00  0.0000E+00  0.1000E+01  0.1000E+01
     -2.962  0.0000E+00  0.0000E+00  0.1000E+01  0.1000E+01
     -2.861  0.0000E+00  0.0000E+00  0.1000E+01  0.1000E+01
     -2.761  0.0000E+00  0.0000E+00  0.1000E+01  0.1000E+01
     -2.660  0.0000E+00  0.0000E+00  0.1000E+01  0.1000E+01
     -2.559  0.0000E+00  0.0000E+00  0.1000E+01  0.1000E+01
     -2.459  0.0000E+00  0.0000E+00  0.1000E+01  0.1000E+01
     -2.358  0.0000E+00  0.0000E+00  0.1000E+01  0.1000E+01
     -2.257  0.0000E+00  0.0000E+00  0.1000E+01  0.1000E+01
     -2.156  0.0000E+00  0.0000E+00  0.1000E+01  0.1000E+01
     -2.056  0.0000E+00  0.0000E+00  0.1000E+01  0.1000E+01
     -1.955  0.0000E+00  0.0000E+00  0.1000E+01  0.1000E+01
     -1.854  0.0000E+00  0.0000E+00  0.1000E+01  0.1000E+01
     -1.753  0.4409E-15  0.4409E-15  0.1000E+01  0.1000E+01
     -1.653  0.1180E-12  0.1178E-12  0.1000E+01  0.1000E+01
     -1.552  0.1859E-10  0.1856E-10  0.1000E+01  0.1000E+01
     -1.451  0.1779E-08  0.1776E-08  0.1000E+01  0.1000E+01
     -1.351  0.1035E-06  0.1033E-06  0.1000E+01  0.1000E+01
     -1.250  0.3667E-05  0.3662E-05  0.1000E+01  0.1000E+01
     -1.149  0.7926E-04  0.7917E-04  0.1000E+01  0.1000E+01
     -1.048  0.1047E-02  0.1046E-02  0.1000E+01  0.1000E+01
     -0.948  0.8457E-02  0.8451E-02  0.1001E+01  0.1001E+01
     -0.847  0.4189E-01  0.4186E-01  0.1005E+01  0.1005E+01
     -0.746  0.1273E+00  0.1273E+00  0.1018E+01  0.1018E+01
     -0.646  0.2378E+00  0.2378E+00  0.1042E+01  0.1042E+01
     -0.545  0.2731E+00  0.2732E+00  0.1069E+01  0.1069E+01
     -0.444  0.1929E+00  0.1929E+00  0.1089E+01  0.1089E+01
     -0.343  0.8374E-01  0.8378E-01  0.1097E+01  0.1097E+01
     -0.243  0.2242E-01  0.2243E-01  0.1100E+01  0.1100E+01
     -0.142  0.4803E-02  0.4806E-02  0.1100E+01  0.1100E+01
     -0.041  0.9487E-02  0.9484E-02  0.1101E+01  0.1101E+01
      0.060  0.4430E-01  0.4429E-01  0.1106E+01  0.1106E+01
      0.160  0.1320E+00  0.1320E+00  0.1119E+01  0.1119E+01
      0.261  0.2426E+00  0.2426E+00  0.1143E+01  0.1143E+01
      0.362  0.2814E+00  0.2814E+00  0.1172E+01  0.1172E+01
      0.462  0.2391E+00  0.2391E+00  0.1196E+01  0.1196E+01
      0.563  0.2522E+00  0.2522E+00  0.1221E+01  0.1221E+01
      0.664  0.4008E+00  0.4007E+00  0.1261E+01  0.1261E+01
      0.765  0.5767E+00  0.5767E+00  0.1320E+01  0.1320E+01
      0.865  0.6575E+00  0.6575E+00  0.1386E+01  0.1386E+01
      0.966  0.6658E+00  0.6658E+00  0.1453E+01  0.1453E+01
      1.067  0.6224E+00  0.6224E+00  0.1516E+01  0.1515E+01
      1.168  0.4714E+00  0.4715E+00  0.1563E+01  0.1563E+01
      1.268  0.2533E+00  0.2534E+00  0.1589E+01  0.1588E+01
      1.369  0.9018E-01  0.9025E-01  0.1598E+01  0.1598E+01
      1.470  0.2064E-01  0.2066E-01  0.1600E+01  0.1600E+01
      1.570  0.2983E-02  0.2987E-02  0.1600E+01  0.1600E+01
      1.671  0.2692E-03  0.2697E-03  0.1600E+01  0.1600E+01
      1.772  0.1505E-04  0.1508E-04  0.1600E+01  0.1600E+01
      1.873  0.5177E-06  0.5190E-06  0.1600E+01  0.1600E+01
      1.973  0.1091E-07  0.1094E-07  0.1600E+01  0.1600E+01
      2.074  0.1403E-09  0.1408E-09  0.1600E+01  0.1600E+01
      2.175  0.1099E-11  0.1104E-11  0.1600E+01  0.1600E+01
      2.276  0.5291E-14  0.5291E-14  0.1600E+01  0.1600E+01
      2.376  0.0000E+00  0.0000E+00  0.1600E+01  0.1600E+01
      2.477  0.0000E+00  0.0000E+00  0.1600E+01  0.1600E+01
      2.578  0.0000E+00  0.0000E+00  0.1600E+01  0.1600E+01
      2.678  0.0000E+00  0.0000E+00  0.1600E+01  0.1600E+01
      2.779  0.0000E+00  0.0000E+00  0.1600E+01  0.1600E+01
      2.880  0.0000E+00  0.0000E+00  0.1600E+01  0.1600E+01
      2.981  0.0000E+00  0.0000E+00  0.1600E+01  0.1600E+01
      3.081  0.0000E+00  0.0000E+00  0.1600E+01  0.1600E+01
