    9    9   10    2
  0.1111111E+03  0.1000000E-08  0.1000000E-08  0.1000000E-08  0.5000000E-15
  1.000000000000000E-004
  CAR 
 unknown system                          
   20    1   16
 
  0.0000000E+00  0.0000000E+00  0.0000000E+00  0.1000000E+01
   1      -25.136272    -25.136267
   2      -18.251473    -18.251461
   3      -14.635870    -14.635860
   4      -12.409317    -12.409313
   5      -10.984839    -10.984832
   6       -9.451143     -9.451133
   7       -8.953625     -8.953611
   8       -8.396824     -8.396814
   9       -7.659992     -7.659982
  10       -5.930180     -5.930183
  11       -0.616844     -0.616803
  12        0.285535      0.285553
  13        0.692435      0.692479
  14        0.791070      0.791110
  15        0.982088      0.982113
  16        1.081247      1.081320
