<?xml version="1.0" encoding="ISO-8859-1"?>
<modeling>
 <generator>
  <i name="program" type="string">vasp </i>
  <i name="version" type="string">5.2.12  </i>
  <i name="subversion" type="string">11Nov11 complex                                                      parallel </i>
  <i name="platform" type="string">LinuxIFC </i>
  <i name="date" type="string">2012 10 31 </i>
  <i name="time" type="string">13:10:06 </i>
 </generator>
 <incar>
  <i type="string" name="PREC">normal</i>
  <i type="int" name="ISPIN">     2</i>
  <i type="int" name="IBRION">     2</i>
  <i type="int" name="NSW">    10</i>
  <i name="ENCUT">    350.00000000</i>
  <i type="int" name="NBANDS">    16</i>
  <i type="int" name="ISMEAR">     0</i>
 </incar>
 <kpoints>
  <generation param="Monkhorst-Pack">
   <v type="int" name="divisions">       1        1        1 </v>
   <v name="usershift">      0.00000000       0.00000000       0.00000000 </v>
   <v name="genvec1">      1.00000000       0.00000000       0.00000000 </v>
   <v name="genvec2">      0.00000000       1.00000000       0.00000000 </v>
   <v name="genvec3">      0.00000000       0.00000000       1.00000000 </v>
   <v name="shift">      0.00000000       0.00000000       0.00000000 </v>
  </generation>
  <varray name="kpointlist" >
   <v>       0.00000000       0.00000000       0.00000000 </v>
  </varray>
  <varray name="weights" >
   <v>       1.00000000 </v>
  </varray>
 </kpoints>
 <parameters>
  <separator name="general" >
   <i type="string" name="SYSTEM">unknown system</i>
   <i type="logical" name="LCOMPAT"> F  </i>
  </separator>
  <separator name="electronic" >
   <i type="string" name="PREC">normal</i>
   <i name="ENMAX">    350.00000000</i>
   <i name="ENAUG">    644.87300000</i>
   <i name="EDIFF">      0.00010000</i>
   <i type="int" name="IALGO">    38</i>
   <i type="int" name="IWAVPR">    11</i>
   <i type="int" name="NBANDS">    16</i>
   <i name="NELECT">     20.00000000</i>
   <i type="int" name="TURBO">     0</i>
   <i type="int" name="IRESTART">     0</i>
   <i type="int" name="NREBOOT">     0</i>
   <i type="int" name="NMIN">     0</i>
   <i name="EREF">      0.00000000</i>
   <separator name="electronic smearing" >
    <i type="int" name="ISMEAR">     0</i>
    <i name="SIGMA">      0.20000000</i>
    <i name="KSPACING">      0.50000000</i>
    <i type="logical" name="KGAMMA"> T  </i>
   </separator>
   <separator name="electronic projectors" >
    <i type="logical" name="LREAL"> F  </i>
    <v name="ROPT">      0.00000000      0.00000000      0.00000000</v>
    <i type="int" name="LMAXPAW">  -100</i>
    <i type="int" name="LMAXMIX">     2</i>
    <i type="logical" name="NLSPLINE"> F  </i>
   </separator>
   <separator name="electronic startup" >
    <i type="int" name="ISTART">     0</i>
    <i type="int" name="ICHARG">     2</i>
    <i type="int" name="INIWAV">     1</i>
   </separator>
   <separator name="electronic spin" >
    <i type="int" name="ISPIN">     2</i>
    <i type="logical" name="LNONCOLLINEAR"> F  </i>
    <v name="MAGMOM">      1.00000000      1.00000000      1.00000000      1.00000000      1.00000000      1.00000000      1.00000000      1.00000000      1.00000000</v>
    <i name="NUPDOWN">     -1.00000000</i>
    <i type="logical" name="LSORBIT"> F  </i>
    <v name="SAXIS">      0.00000000      0.00000000      1.00000000</v>
    <i type="logical" name="LSPIRAL"> F  </i>
    <v name="QSPIRAL">      0.00000000      0.00000000      0.00000000</v>
    <i type="logical" name="LZEROZ"> F  </i>
   </separator>
   <separator name="electronic exchange-correlation" >
    <i type="logical" name="LASPH"> F  </i>
    <i type="logical" name="LMETAGGA"> F  </i>
   </separator>
   <separator name="electronic convergence" >
    <i type="int" name="NELM">    60</i>
    <i type="int" name="NELMDL">    -5</i>
    <i type="int" name="NELMIN">     2</i>
    <i name="ENINI">    350.00000000</i>
    <separator name="electronic convergence detail" >
     <i type="logical" name="LDIAG"> T  </i>
     <i type="logical" name="LSUBROT"> T  </i>
     <i name="WEIMIN">      0.00100000</i>
     <i name="EBREAK">      0.00000156</i>
     <i name="DEPER">      0.30000000</i>
     <i type="int" name="NRMM">     4</i>
     <i name="TIME">      0.40000000</i>
    </separator>
   </separator>
   <separator name="electronic mixer" >
    <i name="AMIX">      0.40000000</i>
    <i name="BMIX">      1.00000000</i>
    <i name="AMIN">      0.10000000</i>
    <i name="AMIX_MAG">      1.60000000</i>
    <i name="BMIX_MAG">      1.00000000</i>
    <separator name="electronic mixer details" >
     <i type="int" name="IMIX">     4</i>
     <i type="int" name="MAXMIX">   -45</i>
     <i name="WC">    100.00000000</i>
     <i type="int" name="INIMIX">     1</i>
     <i type="int" name="MIXPRE">     1</i>
     <i type="int" name="MREMOVE">     5</i>
    </separator>
   </separator>
   <separator name="electronic dipolcorrection" >
    <i type="logical" name="LDIPOL"> F  </i>
    <i type="logical" name="LMONO"> F  </i>
    <i type="int" name="IDIPOL">     0</i>
    <i name="EPSILON">      1.00000000</i>
    <v name="DIPOL">   -100.00000000   -100.00000000   -100.00000000</v>
    <i name="EFIELD">      0.00000000</i>
   </separator>
  </separator>
  <separator name="grids" >
   <i type="int" name="NGX">    48</i>
   <i type="int" name="NGY">    48</i>
   <i type="int" name="NGZ">    48</i>
   <i type="int" name="NGXF">    96</i>
   <i type="int" name="NGYF">    96</i>
   <i type="int" name="NGZF">    96</i>
   <i type="logical" name="ADDGRID"> F  </i>
  </separator>
  <separator name="ionic" >
   <i type="int" name="NSW">    10</i>
   <i type="int" name="IBRION">     2</i>
   <i type="int" name="ISIF">     2</i>
   <i name="PSTRESS">      0.00000000</i>
   <i name="EDIFFG">      0.00100000</i>
   <i type="int" name="NFREE">     1</i>
   <i name="POTIM">      0.50000000</i>
   <i name="SMASS">     -3.00000000</i>
   <i name="SCALEE">      1.00000000</i>
  </separator>
  <separator name="ionic md" >
   <i name="TEBEG">      0.00010000</i>
   <i name="TEEND">      0.00010000</i>
   <i type="int" name="NBLOCK">     1</i>
   <i type="int" name="KBLOCK">    10</i>
   <i type="int" name="NPACO">   256</i>
   <i name="APACO">     16.00000000</i>
  </separator>
  <separator name="symmetry" >
   <i type="int" name="ISYM">     2</i>
   <i name="SYMPREC">      0.00001000</i>
  </separator>
  <separator name="dos" >
   <i type="logical" name="LORBIT"> F  </i>
   <v name="RWIGS">     -1.00000000     -1.00000000     -1.00000000</v>
   <i type="int" name="NEDOS">   301</i>
   <i name="EMIN">     10.00000000</i>
   <i name="EMAX">    -10.00000000</i>
   <i name="EFERMI">      0.00000000</i>
  </separator>
  <separator name="writing" >
   <i type="int" name="NWRITE">     2</i>
   <i type="logical" name="LWAVE"> T  </i>
   <i type="logical" name="LCHARG"> T  </i>
   <i type="logical" name="LPARD"> F  </i>
   <i type="logical" name="LVTOT"> F  </i>
   <i type="logical" name="LVHAR"> F  </i>
   <i type="logical" name="LELF"> F  </i>
   <i type="logical" name="LOPTICS"> F  </i>
   <v name="STM">      0.00000000      0.00000000      0.00000000      0.00000000      0.00000000      0.00000000      0.00000000</v>
  </separator>
  <separator name="performance" >
   <i type="int" name="NPAR">     1</i>
   <i type="int" name="NSIM">     4</i>
   <i type="int" name="NBLK">    -1</i>
   <i type="logical" name="LPLANE"> T  </i>
   <i type="logical" name="LSCALAPACK"> F  </i>
   <i type="logical" name="LSCAAWARE"> F  </i>
   <i type="logical" name="LSCALU"> F  </i>
   <i type="logical" name="LASYNC"> F  </i>
   <i type="logical" name="LORBITALREAL"> F  </i>
  </separator>
  <separator name="miscellaneous" >
   <i type="int" name="IDIOT">     3</i>
   <i type="logical" name="LMUSIC"> F  </i>
   <v name="POMASS">      1.00000000     12.01100000     16.00000000</v>
   <v name="DARWINR">      0.00000000      0.00000000      0.00000000</v>
   <v name="DARWINV">      1.00000000      1.00000000      1.00000000</v>
   <i type="logical" name="LCORR"> T  </i>
  </separator>
  <i type="logical" name="GGA_COMPAT"> T  </i>
  <i type="logical" name="LBERRY"> F  </i>
  <i type="int" name="ICORELEVEL">     0</i>
  <i type="logical" name="LDAU"> F  </i>
  <i type="int" name="I_CONSTRAINED_M">     0</i>
  <separator name="electronic exchange-correlation" >
   <i type="string" name="GGA">--</i>
   <i type="int" name="VOSKOWN">     0</i>
   <i type="logical" name="LHFCALC"> F  </i>
   <i type="string" name="PRECFOCK"></i>
   <i type="logical" name="LHFONE"> F  </i>
   <i type="logical" name="LRHFCALC"> F  </i>
   <i type="logical" name="LTHOMAS"> F  </i>
   <i type="logical" name="LMODELHF"> F  </i>
   <i name="ENCUT4O">     -1.00000000</i>
   <i type="int" name="EXXOEP">     0</i>
   <i type="int" name="FOURORBIT">     0</i>
   <i name="AEXX">      0.00000000</i>
   <i name="HFALPHA">      0.00000000</i>
   <i name="ALDAX">      1.00000000</i>
   <i name="AGGAX">      1.00000000</i>
   <i name="ALDAC">      1.00000000</i>
   <i name="AGGAC">      1.00000000</i>
   <i type="int" name="NKREDX">     1</i>
   <i type="int" name="NKREDY">     1</i>
   <i type="int" name="NKREDZ">     1</i>
   <i type="logical" name="SHIFTRED"> F  </i>
   <i type="logical" name="ODDONLY"> F  </i>
   <i type="logical" name="EVENONLY"> F  </i>
   <i type="int" name="LMAXFOCK">     0</i>
   <i type="int" name="NMAXFOCKAE">     0</i>
   <i type="logical" name="LFOCKAEDFT"> F  </i>
   <i name="HFSCREEN">      0.00000000</i>
   <i name="HFSCREENC">      0.00000000</i>
  </separator>
  <separator name="vdW DFT" >
   <i type="logical" name="LUSE_VDW"> F  </i>
   <i name="Zab_VDW">     -0.84910000</i>
   <i name="PARAM1">      0.12340000</i>
   <i name="PARAM2">      1.00000000</i>
   <i name="PARAM3">      0.00000000</i>
  </separator>
  <separator name="model GW" >
   <i type="int" name="MODEL_GW">     0</i>
   <i name="MODEL_EPS0">     66.66666667</i>
   <i name="MODEL_ALPHA">      1.00000000</i>
  </separator>
  <separator name="linear response parameters" >
   <i type="logical" name="LEPSILON"> F  </i>
   <i type="logical" name="LRPA"> F  </i>
   <i type="logical" name="LNABLA"> F  </i>
   <i type="logical" name="LVEL"> F  </i>
   <i type="int" name="KINTER">     0</i>
   <i name="CSHIFT">      0.10000000</i>
   <i name="OMEGAMAX">     -1.00000000</i>
  </separator>
  <separator name="orbital magnetization" >
   <i type="logical" name="NUCIND"> F  </i>
   <v name="MAGPOS">      0.00000000      0.00000000      0.00000000</v>
   <i type="logical" name="LNICSALL"> T  </i>
   <i type="logical" name="ORBITALMAG"> F  </i>
   <i type="logical" name="LMAGBLOCH"> F  </i>
   <i type="logical" name="LCHIMAG"> F  </i>
   <i type="logical" name="LGAUGE"> T  </i>
   <i type="int" name="MAGATOM">     0</i>
   <v name="MAGDIPOL">      0.00000000      0.00000000      0.00000000</v>
   <v name="AVECCONST">      0.00000000      0.00000000      0.00000000</v>
  </separator>
  <separator name="response functions" >
   <i type="logical" name="LADDER"> F  </i>
   <i type="logical" name="LHARTREE"> T  </i>
   <i type="int" name="IBSE">     0</i>
   <i type="logical" name="LTCTE"> F  </i>
   <i type="logical" name="LTETE"> F  </i>
   <i type="logical" name="LFXCEPS"> F  </i>
   <i type="logical" name="L2ORDER"> F  </i>
   <i type="logical" name="LUSEW"> F  </i>
   <i name="ENCUTGW">     -2.00000000</i>
   <i name="ENCUTGWSOFT">     -2.00000000</i>
   <i name="ENCUTLF">     -1.00000000</i>
   <i type="int" name="LMAXMP2">    -1</i>
   <i name="SCISSOR">      0.00000000</i>
   <i type="int" name="NOMEGA">     0</i>
   <i type="int" name="NOMEGAR">     0</i>
   <i type="int" name="NBANDSGW">    -1</i>
   <i type="int" name="NBANDSO">    -1</i>
   <i type="int" name="NBANDSV">    -1</i>
   <i name="OPTEMAX">      0.00000000</i>
   <i type="int" name="NELM">     1</i>
   <i type="int" name="DIM">     3</i>
   <i type="int" name="ANTIRES">     0</i>
   <i name="OMEGAMAX">    -30.00000000</i>
   <i name="OMEGATL">   -200.00000000</i>
   <i type="int" name="OMEGAGRID">     0</i>
   <i name="CSHIFT">     -0.10000000</i>
   <i type="logical" name="SELFENERGY"> F  </i>
   <i type="logical" name="LSPECTRAL"> F  </i>
   <i type="logical" name="ODDONLYGW"> F  </i>
   <i type="logical" name="EVENONLYGW"> F  </i>
   <i type="int" name="NKREDLFX">     1</i>
   <i type="int" name="NKREDLFY">     1</i>
   <i type="int" name="NKREDLFZ">     1</i>
   <i type="int" name="MAXMEM">  1800</i>
   <i type="int" name="TELESCOPE">     0</i>
  </separator>
 </parameters>
 <atominfo>
  <atoms>       9 </atoms>
  <types>       3 </types>
  <array name="atoms" >
   <dimension dim="1">ion</dimension>
   <field type="string">element</field>
   <field type="int">atomtype</field>
   <set>
    <rc><c>H </c><c>   1</c></rc>
    <rc><c>H </c><c>   1</c></rc>
    <rc><c>H </c><c>   1</c></rc>
    <rc><c>H </c><c>   1</c></rc>
    <rc><c>H </c><c>   1</c></rc>
    <rc><c>H </c><c>   1</c></rc>
    <rc><c>C </c><c>   2</c></rc>
    <rc><c>C </c><c>   2</c></rc>
    <rc><c>O </c><c>   3</c></rc>
   </set>
  </array>
  <array name="atomtypes" >
   <dimension dim="1">type</dimension>
   <field type="int">atomspertype</field>
   <field type="string">element</field>
   <field>mass</field>
   <field>valence</field>
   <field type="string">pseudopotential</field>
   <set>
    <rc><c>   6</c><c>H </c><c>      1.00000000</c><c>      1.00000000</c><c> PAW_PBE H 15Jun2001                    </c></rc>
    <rc><c>   2</c><c>C </c><c>     12.01100000</c><c>      4.00000000</c><c> PAW_PBE C 08Apr2002                    </c></rc>
    <rc><c>   1</c><c>O </c><c>     16.00000000</c><c>      6.00000000</c><c> PAW_PBE O 08Apr2002                    </c></rc>
   </set>
  </array>
 </atominfo>
 <structure name="initialpos" >
  <crystal>
   <varray name="basis" >
    <v>      10.00000000       0.00000000       0.00000000 </v>
    <v>       0.00000000      10.00000000       0.00000000 </v>
    <v>       0.00000000       0.00000000      10.00000000 </v>
   </varray>
   <i name="volume">   1000.00000000 </i>
   <varray name="rec_basis" >
    <v>       0.10000000       0.00000000       0.00000000 </v>
    <v>       0.00000000       0.10000000       0.00000000 </v>
    <v>       0.00000000       0.00000000       0.10000000 </v>
   </varray>
  </crystal>
  <varray name="positions" >
   <v>       0.29687430       0.52963880       0.50000000 </v>
   <v>       0.49579230       0.61223710       0.58869330 </v>
   <v>       0.49579230       0.61223710       0.41130670 </v>
   <v>       0.70312570       0.50596630       0.50000000 </v>
   <v>       0.60439650       0.38776290       0.58858810 </v>
   <v>       0.60439650       0.38776290       0.41141190 </v>
   <v>       0.60835470       0.45144810       0.50000000 </v>
   <v>       0.49153660       0.54743250       0.50000000 </v>
   <v>       0.37252830       0.46871940       0.50000000 </v>
  </varray>
 </structure>
 <calculation>
  <scstep>
   <time name="dav">    3.56    3.56</time>
   <time name="total">    6.95    6.96</time>
   <energy>
    <i name="alphaZ">      1.57025471 </i>
    <i name="ewald">    542.94463919 </i>
    <i name="hartreedc">  -1123.87651405 </i>
    <i name="XCdc">     71.68995000 </i>
    <i name="pawpsdc">    324.40638091 </i>
    <i name="pawaedc">   -328.58530688 </i>
    <i name="eentropy">     -0.04724373 </i>
    <i name="bandstr">   -198.04447702 </i>
    <i name="atom">    800.95065627 </i>
    <i name="e_fr_energy">     91.00833940 </i>
    <i name="e_wo_entrp">     91.05558313 </i>
    <i name="e_0_energy">     91.03196126 </i>
   </energy>
  </scstep>
  <scstep>
   <time name="dav">    3.76    3.76</time>
   <time name="total">    3.76    3.80</time>
   <energy>
    <i name="e_fr_energy">    -15.10504890 </i>
    <i name="e_wo_entrp">    -15.10504733 </i>
    <i name="e_0_energy">    -15.10504811 </i>
   </energy>
  </scstep>
  <scstep>
   <time name="dav">    2.61    2.61</time>
   <time name="total">    2.61    2.62</time>
   <energy>
    <i name="e_fr_energy">    -39.06583043 </i>
    <i name="e_wo_entrp">    -39.06583043 </i>
    <i name="e_0_energy">    -39.06583043 </i>
   </energy>
  </scstep>
  <scstep>
   <time name="dav">    4.00    4.00</time>
   <time name="total">    4.00    4.02</time>
   <energy>
    <i name="e_fr_energy">    -40.26888975 </i>
    <i name="e_wo_entrp">    -40.26888975 </i>
    <i name="e_0_energy">    -40.26888975 </i>
   </energy>
  </scstep>
  <scstep>
   <time name="dav">    3.31    3.31</time>
   <time name="total">    3.82    3.89</time>
   <energy>
    <i name="e_fr_energy">    -40.28998923 </i>
    <i name="e_wo_entrp">    -40.28998923 </i>
    <i name="e_0_energy">    -40.28998923 </i>
   </energy>
  </scstep>
  <scstep>
   <time name="dav">    3.31    3.31</time>
   <time name="total">    7.29    7.31</time>
   <energy>
    <i name="e_fr_energy">    -18.65913969 </i>
    <i name="e_wo_entrp">    -18.65913969 </i>
    <i name="e_0_energy">    -18.65913969 </i>
   </energy>
  </scstep>
  <scstep>
   <time name="dav">    3.07    3.07</time>
   <time name="total">    7.06    7.09</time>
   <energy>
    <i name="e_fr_energy">    -38.71347779 </i>
    <i name="e_wo_entrp">    -38.71347779 </i>
    <i name="e_0_energy">    -38.71347779 </i>
   </energy>
  </scstep>
  <scstep>
   <time name="dav">    2.60    2.60</time>
   <time name="total">    6.59    6.61</time>
   <energy>
    <i name="e_fr_energy">    -42.02167722 </i>
    <i name="e_wo_entrp">    -42.02167722 </i>
    <i name="e_0_energy">    -42.02167722 </i>
   </energy>
  </scstep>
  <scstep>
   <time name="dav">    3.31    3.31</time>
   <time name="total">    7.31    7.33</time>
   <energy>
    <i name="e_fr_energy">    -46.50707008 </i>
    <i name="e_wo_entrp">    -46.50707008 </i>
    <i name="e_0_energy">    -46.50707008 </i>
   </energy>
  </scstep>
  <scstep>
   <time name="dav">    2.83    2.84</time>
   <time name="total">    6.85    6.89</time>
   <energy>
    <i name="e_fr_energy">    -46.78474777 </i>
    <i name="e_wo_entrp">    -46.78474777 </i>
    <i name="e_0_energy">    -46.78474777 </i>
   </energy>
  </scstep>
  <scstep>
   <time name="dav">    3.53    3.53</time>
   <time name="total">    7.53    7.55</time>
   <energy>
    <i name="e_fr_energy">    -46.82548215 </i>
    <i name="e_wo_entrp">    -46.82548215 </i>
    <i name="e_0_energy">    -46.82548215 </i>
   </energy>
  </scstep>
  <scstep>
   <time name="dav">    2.59    2.59</time>
   <time name="total">    6.59    6.62</time>
   <energy>
    <i name="e_fr_energy">    -46.82696622 </i>
    <i name="e_wo_entrp">    -46.82696622 </i>
    <i name="e_0_energy">    -46.82696622 </i>
   </energy>
  </scstep>
  <scstep>
   <time name="dav">    2.59    2.59</time>
   <time name="total">    6.60    6.61</time>
   <energy>
    <i name="e_fr_energy">    -46.82829342 </i>
    <i name="e_wo_entrp">    -46.82829342 </i>
    <i name="e_0_energy">    -46.82829342 </i>
   </energy>
  </scstep>
  <scstep>
   <time name="dav">    2.58    2.58</time>
   <time name="total">    6.56    6.59</time>
   <energy>
    <i name="e_fr_energy">    -46.83138900 </i>
    <i name="e_wo_entrp">    -46.83138900 </i>
    <i name="e_0_energy">    -46.83138900 </i>
   </energy>
  </scstep>
  <scstep>
   <time name="dav">    3.26    3.26</time>
   <time name="total">    7.22    7.24</time>
   <energy>
    <i name="e_fr_energy">    -46.83956969 </i>
    <i name="e_wo_entrp">    -46.83956969 </i>
    <i name="e_0_energy">    -46.83956969 </i>
   </energy>
  </scstep>
  <scstep>
   <time name="dav">    2.57    2.57</time>
   <time name="total">    6.52    6.58</time>
   <energy>
    <i name="e_fr_energy">    -46.84328692 </i>
    <i name="e_wo_entrp">    -46.84328692 </i>
    <i name="e_0_energy">    -46.84328692 </i>
   </energy>
  </scstep>
  <scstep>
   <time name="dav">    2.56    2.56</time>
   <time name="total">    6.51    6.53</time>
   <energy>
    <i name="e_fr_energy">    -46.84603351 </i>
    <i name="e_wo_entrp">    -46.84603351 </i>
    <i name="e_0_energy">    -46.84603351 </i>
   </energy>
  </scstep>
  <scstep>
   <time name="dav">    2.56    2.56</time>
   <time name="total">    6.51    6.52</time>
   <energy>
    <i name="e_fr_energy">    -46.84808215 </i>
    <i name="e_wo_entrp">    -46.84808215 </i>
    <i name="e_0_energy">    -46.84808215 </i>
   </energy>
  </scstep>
  <scstep>
   <time name="dav">    2.56    2.57</time>
   <time name="total">    6.51    6.53</time>
   <energy>
    <i name="e_fr_energy">    -46.84910470 </i>
    <i name="e_wo_entrp">    -46.84910470 </i>
    <i name="e_0_energy">    -46.84910470 </i>
   </energy>
  </scstep>
  <scstep>
   <time name="dav">    3.03    3.03</time>
   <time name="total">    6.98    6.99</time>
   <energy>
    <i name="e_fr_energy">    -46.84940168 </i>
    <i name="e_wo_entrp">    -46.84940168 </i>
    <i name="e_0_energy">    -46.84940168 </i>
   </energy>
  </scstep>
  <scstep>
   <time name="dav">    3.04    3.04</time>
   <time name="total">    7.02    7.03</time>
   <energy>
    <i name="e_fr_energy">    -46.84961951 </i>
    <i name="e_wo_entrp">    -46.84961951 </i>
    <i name="e_0_energy">    -46.84961951 </i>
   </energy>
  </scstep>
  <scstep>
   <time name="dav">    3.05    3.06</time>
   <time name="total">    6.47    6.48</time>
   <energy>
    <i name="alphaZ">      1.57025471 </i>
    <i name="ewald">    542.94463919 </i>
    <i name="hartreedc">  -1217.40706949 </i>
    <i name="XCdc">     74.10563506 </i>
    <i name="pawpsdc">    485.35107364 </i>
    <i name="pawaedc">   -489.98629337 </i>
    <i name="eentropy">      0.00000000 </i>
    <i name="bandstr">   -244.37855376 </i>
    <i name="atom">    800.95065627 </i>
    <i name="e_fr_energy">    -46.84965775 </i>
    <i name="e_wo_entrp">    -46.84965775 </i>
    <i name="e_0_energy">    -46.84965775 </i>
   </energy>
  </scstep>
  <parameters_embedded>
   <separator name="dft+d2" >
    <i type="logical" name="LVDW"> F  </i>
   </separator>
  </parameters_embedded>
  <structure>
   <crystal>
    <varray name="basis" >
     <v>      10.00000000       0.00000000       0.00000000 </v>
     <v>       0.00000000      10.00000000       0.00000000 </v>
     <v>       0.00000000       0.00000000      10.00000000 </v>
    </varray>
    <i name="volume">   1000.00000000 </i>
    <varray name="rec_basis" >
     <v>       0.10000000       0.00000000       0.00000000 </v>
     <v>       0.00000000       0.10000000       0.00000000 </v>
     <v>       0.00000000       0.00000000       0.10000000 </v>
    </varray>
   </crystal>
   <varray name="positions" >
    <v>       0.29687430       0.52963880       0.50000000 </v>
    <v>       0.49579230       0.61223710       0.58869330 </v>
    <v>       0.49579230       0.61223710       0.41130670 </v>
    <v>       0.70312570       0.50596630       0.50000000 </v>
    <v>       0.60439650       0.38776290       0.58858810 </v>
    <v>       0.60439650       0.38776290       0.41141190 </v>
    <v>       0.60835470       0.45144810       0.50000000 </v>
    <v>       0.49153660       0.54743250       0.50000000 </v>
    <v>       0.37252830       0.46871940       0.50000000 </v>
   </varray>
  </structure>
  <varray name="forces" >
   <v>      -0.14256852      -0.01057414       0.00000000 </v>
   <v>      -0.01447159       0.18781755       0.27411855 </v>
   <v>      -0.01447159       0.18781755      -0.27411855 </v>
   <v>       0.24781286       0.12322705       0.00000000 </v>
   <v>       0.02795789      -0.20592401       0.25732744 </v>
   <v>       0.02795789      -0.20592401      -0.25732744 </v>
   <v>      -0.14893854       0.22412725       0.00000000 </v>
   <v>       0.30553084      -0.23731920       0.00000000 </v>
   <v>      -0.28880923      -0.06324804       0.00000000 </v>
  </varray>
  <varray name="stress" >
   <v>      -3.21933767       0.46132935       0.00000000 </v>
   <v>       0.46132907      -4.49824677       0.00000000 </v>
   <v>       0.00000000       0.00000000      -4.84375806 </v>
  </varray>
  <energy>
   <i name="e_fr_energy">    -46.84965775 </i>
   <i name="e_wo_entrp">    -46.84965775 </i>
   <i name="e_0_energy">      0.00000000 </i>
  </energy>
  <time name="totalsc">  148.24  149.20</time>
 </calculation>
 <calculation>
  <scstep>
   <time name="dav">    3.66    3.70</time>
   <time name="total">    8.68    8.72</time>
   <energy>
    <i name="alphaZ">      1.57025471 </i>
    <i name="ewald">    535.72309984 </i>
    <i name="hartreedc">  -1212.39659525 </i>
    <i name="XCdc">     73.95869166 </i>
    <i name="pawpsdc">    485.35023868 </i>
    <i name="pawaedc">   -489.98544652 </i>
    <i name="eentropy">      0.00000000 </i>
    <i name="bandstr">   -242.00730525 </i>
    <i name="atom">    800.95065627 </i>
    <i name="e_fr_energy">    -46.83640586 </i>
    <i name="e_wo_entrp">    -46.83640586 </i>
    <i name="e_0_energy">    -46.83640586 </i>
   </energy>
  </scstep>
  <scstep>
   <time name="dav">    3.28    3.28</time>
   <time name="total">    7.82    7.83</time>
   <energy>
    <i name="e_fr_energy">    -46.83866628 </i>
    <i name="e_wo_entrp">    -46.83866628 </i>
    <i name="e_0_energy">    -46.83866628 </i>
   </energy>
  </scstep>
  <scstep>
   <time name="dav">    2.82    2.82</time>
   <time name="total">    6.74    6.83</time>
   <energy>
    <i name="e_fr_energy">    -46.83687375 </i>
    <i name="e_wo_entrp">    -46.83687375 </i>
    <i name="e_0_energy">    -46.83687375 </i>
   </energy>
  </scstep>
  <scstep>
   <time name="dav">    3.28    3.28</time>
   <time name="total">    6.71    6.72</time>
   <energy>
    <i name="alphaZ">      1.57025471 </i>
    <i name="ewald">    535.72309984 </i>
    <i name="hartreedc">  -1210.83082336 </i>
    <i name="XCdc">     73.86814209 </i>
    <i name="pawpsdc">    480.91511863 </i>
    <i name="pawaedc">   -485.53164491 </i>
    <i name="eentropy">      0.00000000 </i>
    <i name="bandstr">   -243.50172766 </i>
    <i name="atom">    800.95065627 </i>
    <i name="e_fr_energy">    -46.83692440 </i>
    <i name="e_wo_entrp">    -46.83692440 </i>
    <i name="e_0_energy">    -46.83692440 </i>
   </energy>
  </scstep>
  <structure>
   <crystal>
    <varray name="basis" >
     <v>      10.00000000       0.00000000       0.00000000 </v>
     <v>       0.00000000      10.00000000       0.00000000 </v>
     <v>       0.00000000       0.00000000      10.00000000 </v>
    </varray>
    <i name="volume">   1000.00000000 </i>
    <varray name="rec_basis" >
     <v>       0.10000000       0.00000000       0.00000000 </v>
     <v>       0.00000000       0.10000000       0.00000000 </v>
     <v>       0.00000000       0.00000000       0.10000000 </v>
    </varray>
   </crystal>
   <varray name="positions" >
    <v>       0.29618651       0.52958779       0.50000000 </v>
    <v>       0.49572249       0.61314318       0.59001572 </v>
    <v>       0.49572249       0.61314318       0.40998428 </v>
    <v>       0.70432122       0.50656078       0.50000000 </v>
    <v>       0.60453138       0.38676947       0.58982952 </v>
    <v>       0.60453138       0.38676947       0.41017048 </v>
    <v>       0.60763618       0.45252935       0.50000000 </v>
    <v>       0.49301056       0.54628761       0.50000000 </v>
    <v>       0.37113501       0.46841427       0.50000000 </v>
   </varray>
  </structure>
  <varray name="forces" >
   <v>      -0.21163407       0.18213419       0.00000000 </v>
   <v>       0.00586512      -0.21578771      -0.24586291 </v>
   <v>       0.00586512      -0.21578771       0.24586291 </v>
   <v>      -0.16955016      -0.05817225       0.00000000 </v>
   <v>       0.04227305       0.19043015      -0.26009179 </v>
   <v>       0.04227305       0.19043015       0.26009179 </v>
   <v>       0.73263970      -0.92720798       0.00000000 </v>
   <v>      -0.84813329       0.93146699       0.00000000 </v>
   <v>       0.40040148      -0.07750582       0.00000000 </v>
  </varray>
  <varray name="stress" >
   <v>      -4.02361311      -1.44630203       0.00000000 </v>
   <v>      -1.44630123      -5.52506998       0.00000000 </v>
   <v>       0.00000000       0.00000000      -7.71599815 </v>
  </varray>
  <energy>
   <i name="e_fr_energy">    -46.83692440 </i>
   <i name="e_wo_entrp">    -46.83692440 </i>
   <i name="e_0_energy">      0.00000000 </i>
  </energy>
  <time name="totalsc">   37.39   37.57</time>
 </calculation>
 <calculation>
  <scstep>
   <time name="dav">    3.33    3.33</time>
   <time name="total">    7.50    7.50</time>
   <energy>
    <i name="alphaZ">      1.57025471 </i>
    <i name="ewald">    540.17363387 </i>
    <i name="hartreedc">  -1213.84642335 </i>
    <i name="XCdc">     73.95124380 </i>
    <i name="pawpsdc">    480.54513095 </i>
    <i name="pawaedc">   -485.16105050 </i>
    <i name="eentropy">      0.00000000 </i>
    <i name="bandstr">   -245.04037526 </i>
    <i name="atom">    800.95065627 </i>
    <i name="e_fr_energy">    -46.85692951 </i>
    <i name="e_wo_entrp">    -46.85692951 </i>
    <i name="e_0_energy">    -46.85692951 </i>
   </energy>
  </scstep>
  <scstep>
   <time name="dav">    4.83    4.83</time>
   <time name="total">    9.82    9.82</time>
   <energy>
    <i name="e_fr_energy">    -46.85799604 </i>
    <i name="e_wo_entrp">    -46.85799604 </i>
    <i name="e_0_energy">    -46.85799604 </i>
   </energy>
  </scstep>
  <scstep>
   <time name="dav">    4.18    4.18</time>
   <time name="total">    9.16    9.19</time>
   <energy>
    <i name="e_fr_energy">    -46.85736758 </i>
    <i name="e_wo_entrp">    -46.85736758 </i>
    <i name="e_0_energy">    -46.85736758 </i>
   </energy>
  </scstep>
  <scstep>
   <time name="dav">    4.16    4.16</time>
   <time name="total">    8.49    8.50</time>
   <energy>
    <i name="alphaZ">      1.57025471 </i>
    <i name="ewald">    540.17363387 </i>
    <i name="hartreedc">  -1214.82342858 </i>
    <i name="XCdc">     74.00856088 </i>
    <i name="pawpsdc">    483.24382244 </i>
    <i name="pawaedc">   -487.87152725 </i>
    <i name="eentropy">      0.00000000 </i>
    <i name="bandstr">   -244.10938094 </i>
    <i name="atom">    800.95065627 </i>
    <i name="e_fr_energy">    -46.85740859 </i>
    <i name="e_wo_entrp">    -46.85740859 </i>
    <i name="e_0_energy">    -46.85740859 </i>
   </energy>
  </scstep>
  <structure>
   <crystal>
    <varray name="basis" >
     <v>      10.00000000       0.00000000       0.00000000 </v>
     <v>       0.00000000      10.00000000       0.00000000 </v>
     <v>       0.00000000       0.00000000      10.00000000 </v>
    </varray>
    <i name="volume">   1000.00000000 </i>
    <varray name="rec_basis" >
     <v>       0.10000000       0.00000000       0.00000000 </v>
     <v>       0.00000000       0.10000000       0.00000000 </v>
     <v>       0.00000000       0.00000000       0.10000000 </v>
    </varray>
   </crystal>
   <varray name="positions" >
    <v>       0.29661414       0.52961950       0.50000000 </v>
    <v>       0.49576589       0.61257983       0.58919351 </v>
    <v>       0.49576589       0.61257983       0.41080649 </v>
    <v>       0.70357791       0.50619116       0.50000000 </v>
    <v>       0.60444752       0.38738713       0.58905767 </v>
    <v>       0.60444752       0.38738713       0.41094233 </v>
    <v>       0.60808292       0.45185709       0.50000000 </v>
    <v>       0.49209413       0.54699944       0.50000000 </v>
    <v>       0.37200128       0.46860399       0.50000000 </v>
   </varray>
  </structure>
  <varray name="forces" >
   <v>      -0.16648416       0.05737265       0.00000000 </v>
   <v>      -0.00926528       0.03177350       0.07120103 </v>
   <v>      -0.00926528       0.03177350      -0.07120103 </v>
   <v>       0.08805068       0.05172211       0.00000000 </v>
   <v>       0.03501179      -0.05160962       0.05280523 </v>
   <v>       0.03501179      -0.05160962      -0.05280523 </v>
   <v>       0.17743675      -0.21321485       0.00000000 </v>
   <v>      -0.12655713       0.19956126       0.00000000 </v>
   <v>      -0.02393915      -0.05576893       0.00000000 </v>
  </varray>
  <varray name="stress" >
   <v>      -3.50113449      -0.28985714       0.00000000 </v>
   <v>      -0.28985684      -4.86949580       0.00000000 </v>
   <v>       0.00000000       0.00000000      -5.94415498 </v>
  </varray>
  <energy>
   <i name="e_fr_energy">    -46.85740859 </i>
   <i name="e_wo_entrp">    -46.85740859 </i>
   <i name="e_0_energy">      0.00000000 </i>
  </energy>
  <time name="totalsc">   44.73   44.83</time>
 </calculation>
 <calculation>
  <scstep>
   <time name="dav">    3.49    3.50</time>
   <time name="total">    8.54    8.55</time>
   <energy>
    <i name="alphaZ">      1.57025471 </i>
    <i name="ewald">    533.91264331 </i>
    <i name="hartreedc">  -1210.09292618 </i>
    <i name="XCdc">     73.90722930 </i>
    <i name="pawpsdc">    483.45482243 </i>
    <i name="pawaedc">   -488.08284904 </i>
    <i name="eentropy">      0.00000000 </i>
    <i name="bandstr">   -242.48017571 </i>
    <i name="atom">    800.95065627 </i>
    <i name="e_fr_energy">    -46.86034493 </i>
    <i name="e_wo_entrp">    -46.86034493 </i>
    <i name="e_0_energy">    -46.86034493 </i>
   </energy>
  </scstep>
  <scstep>
   <time name="dav">    4.84    4.85</time>
   <time name="total">    9.94    9.94</time>
   <energy>
    <i name="e_fr_energy">    -46.85986944 </i>
    <i name="e_wo_entrp">    -46.85986944 </i>
    <i name="e_0_energy">    -46.85986944 </i>
   </energy>
  </scstep>
  <scstep>
   <time name="dav">    4.17    4.17</time>
   <time name="total">    9.16    9.18</time>
   <energy>
    <i name="e_fr_energy">    -46.85963913 </i>
    <i name="e_wo_entrp">    -46.85963913 </i>
    <i name="e_0_energy">    -46.85963913 </i>
   </energy>
  </scstep>
  <scstep>
   <time name="dav">    3.65    3.65</time>
   <time name="total">    7.95    7.97</time>
   <energy>
    <i name="alphaZ">      1.57025471 </i>
    <i name="ewald">    533.91264331 </i>
    <i name="hartreedc">  -1209.18253711 </i>
    <i name="XCdc">     73.86792227 </i>
    <i name="pawpsdc">    480.37928105 </i>
    <i name="pawaedc">   -484.99056950 </i>
    <i name="eentropy">      0.00000000 </i>
    <i name="bandstr">   -243.36729088 </i>
    <i name="atom">    800.95065627 </i>
    <i name="e_fr_energy">    -46.85963989 </i>
    <i name="e_wo_entrp">    -46.85963989 </i>
    <i name="e_0_energy">    -46.85963989 </i>
   </energy>
  </scstep>
  <structure>
   <crystal>
    <varray name="basis" >
     <v>      10.00000000       0.00000000       0.00000000 </v>
     <v>       0.00000000      10.00000000       0.00000000 </v>
     <v>       0.00000000       0.00000000      10.00000000 </v>
    </varray>
    <i name="volume">   1000.00000000 </i>
    <varray name="rec_basis" >
     <v>       0.10000000       0.00000000       0.00000000 </v>
     <v>       0.00000000       0.10000000       0.00000000 </v>
     <v>       0.00000000       0.00000000       0.10000000 </v>
    </varray>
   </crystal>
   <varray name="positions" >
    <v>       0.29576826       0.52985129       0.50000000 </v>
    <v>       0.49571228       0.61290190       0.58976846 </v>
    <v>       0.49571228       0.61290190       0.41023154 </v>
    <v>       0.70419772       0.50653291       0.50000000 </v>
    <v>       0.60462338       0.38696315       0.58953811 </v>
    <v>       0.60462338       0.38696315       0.41046189 </v>
    <v>       0.60868351       0.45118055       0.50000000 </v>
    <v>       0.49186509       0.54760510       0.50000000 </v>
    <v>       0.37161129       0.46830514       0.50000000 </v>
   </varray>
  </structure>
  <varray name="forces" >
   <v>       0.06863232      -0.14163500       0.00000000 </v>
   <v>      -0.02192323      -0.02110505      -0.03460640 </v>
   <v>      -0.02192323      -0.02110505       0.03460640 </v>
   <v>      -0.03562148      -0.06477239       0.00000000 </v>
   <v>       0.04804041      -0.00349038      -0.03529064 </v>
   <v>       0.04804041      -0.00349038       0.03529064 </v>
   <v>      -0.01207930       0.09597434       0.00000000 </v>
   <v>       0.03799917      -0.11977314       0.00000000 </v>
   <v>      -0.11116508       0.27939703       0.00000000 </v>
  </varray>
  <varray name="stress" >
   <v>      -4.83556103       0.05198199       0.00000000 </v>
   <v>       0.05198189      -6.01003196       0.00000000 </v>
   <v>       0.00000000       0.00000000      -6.51139970 </v>
  </varray>
  <energy>
   <i name="e_fr_energy">    -46.85963989 </i>
   <i name="e_wo_entrp">    -46.85963989 </i>
   <i name="e_0_energy">      0.00000000 </i>
  </energy>
  <time name="totalsc">   45.26   45.46</time>
 </calculation>
 <calculation>
  <scstep>
   <time name="dav">    3.62    3.63</time>
   <time name="total">    8.65    8.66</time>
   <energy>
    <i name="alphaZ">      1.57025471 </i>
    <i name="ewald">    535.86773126 </i>
    <i name="hartreedc">  -1210.64104141 </i>
    <i name="XCdc">     73.89857494 </i>
    <i name="pawpsdc">    479.97644210 </i>
    <i name="pawaedc">   -484.58568749 </i>
    <i name="eentropy">      0.00000000 </i>
    <i name="bandstr">   -243.89730479 </i>
    <i name="atom">    800.95065627 </i>
    <i name="e_fr_energy">    -46.86037442 </i>
    <i name="e_wo_entrp">    -46.86037442 </i>
    <i name="e_0_energy">    -46.86037442 </i>
   </energy>
  </scstep>
  <scstep>
   <time name="dav">    4.27    4.27</time>
   <time name="total">    8.60    8.60</time>
   <energy>
    <i name="alphaZ">      1.57025471 </i>
    <i name="ewald">    535.86773126 </i>
    <i name="hartreedc">  -1210.84754033 </i>
    <i name="XCdc">     73.90758355 </i>
    <i name="pawpsdc">    480.53118343 </i>
    <i name="pawaedc">   -485.14302724 </i>
    <i name="eentropy">      0.00000000 </i>
    <i name="bandstr">   -243.69717036 </i>
    <i name="atom">    800.95065627 </i>
    <i name="e_fr_energy">    -46.86032872 </i>
    <i name="e_wo_entrp">    -46.86032872 </i>
    <i name="e_0_energy">    -46.86032872 </i>
   </energy>
  </scstep>
  <structure>
   <crystal>
    <varray name="basis" >
     <v>      10.00000000       0.00000000       0.00000000 </v>
     <v>       0.00000000      10.00000000       0.00000000 </v>
     <v>       0.00000000       0.00000000      10.00000000 </v>
    </varray>
    <i name="volume">   1000.00000000 </i>
    <varray name="rec_basis" >
     <v>       0.10000000       0.00000000       0.00000000 </v>
     <v>       0.00000000       0.10000000       0.00000000 </v>
     <v>       0.00000000       0.00000000       0.10000000 </v>
    </varray>
   </crystal>
   <varray name="positions" >
    <v>       0.29603324       0.52977868       0.50000000 </v>
    <v>       0.49572907       0.61280101       0.58958835 </v>
    <v>       0.49572907       0.61280101       0.41041165 </v>
    <v>       0.70400356       0.50642585       0.50000000 </v>
    <v>       0.60456829       0.38709597       0.58938761 </v>
    <v>       0.60456829       0.38709597       0.41061239 </v>
    <v>       0.60849537       0.45139249       0.50000000 </v>
    <v>       0.49193684       0.54741537       0.50000000 </v>
    <v>       0.37173346       0.46839876       0.50000000 </v>
   </varray>
  </structure>
  <varray name="forces" >
   <v>       0.00039732      -0.08342796       0.00000000 </v>
   <v>      -0.01606066      -0.00951327      -0.00717937 </v>
   <v>      -0.01606066      -0.00951327       0.00717937 </v>
   <v>      -0.00305778      -0.03047199       0.00000000 </v>
   <v>       0.04398429      -0.01426837      -0.01210400 </v>
   <v>       0.04398429      -0.01426837       0.01210400 </v>
   <v>       0.03619588       0.00945055       0.00000000 </v>
   <v>      -0.00755034      -0.02786461       0.00000000 </v>
   <v>      -0.08183232       0.17987730       0.00000000 </v>
  </varray>
  <varray name="stress" >
   <v>      -4.33732913      -0.01838821       0.00000000 </v>
   <v>      -0.01838867      -5.52810533       0.00000000 </v>
   <v>       0.00000000       0.00000000      -6.15021860 </v>
  </varray>
  <energy>
   <i name="e_fr_energy">    -46.86032872 </i>
   <i name="e_wo_entrp">    -46.86032872 </i>
   <i name="e_0_energy">      0.00000000 </i>
  </energy>
  <time name="totalsc">   26.61   26.66</time>
 </calculation>
 <calculation>
  <scstep>
   <time name="dav">    3.47    3.47</time>
   <time name="total">    8.45    8.46</time>
   <energy>
    <i name="alphaZ">      1.57025471 </i>
    <i name="ewald">    534.78688091 </i>
    <i name="hartreedc">  -1209.78138133 </i>
    <i name="XCdc">     73.90074687 </i>
    <i name="pawpsdc">    480.94803712 </i>
    <i name="pawaedc">   -485.56294630 </i>
    <i name="eentropy">      0.00000000 </i>
    <i name="bandstr">   -243.67227261 </i>
    <i name="atom">    800.95065627 </i>
    <i name="e_fr_energy">    -46.86002437 </i>
    <i name="e_wo_entrp">    -46.86002437 </i>
    <i name="e_0_energy">    -46.86002437 </i>
   </energy>
  </scstep>
  <scstep>
   <time name="dav">    4.02    4.02</time>
   <time name="total">    9.01    9.02</time>
   <energy>
    <i name="e_fr_energy">    -46.86048254 </i>
    <i name="e_wo_entrp">    -46.86048254 </i>
    <i name="e_0_energy">    -46.86048254 </i>
   </energy>
  </scstep>
  <scstep>
   <time name="dav">    3.42    3.42</time>
   <time name="total">    7.73    7.75</time>
   <energy>
    <i name="alphaZ">      1.57025471 </i>
    <i name="ewald">    534.78688091 </i>
    <i name="hartreedc">  -1209.82271173 </i>
    <i name="XCdc">     73.90932453 </i>
    <i name="pawpsdc">    481.43801129 </i>
    <i name="pawaedc">   -486.05585751 </i>
    <i name="eentropy">      0.00000000 </i>
    <i name="bandstr">   -243.63699556 </i>
    <i name="atom">    800.95065627 </i>
    <i name="e_fr_energy">    -46.86043710 </i>
    <i name="e_wo_entrp">    -46.86043710 </i>
    <i name="e_0_energy">    -46.86043710 </i>
   </energy>
  </scstep>
  <structure>
   <crystal>
    <varray name="basis" >
     <v>      10.00000000       0.00000000       0.00000000 </v>
     <v>       0.00000000      10.00000000       0.00000000 </v>
     <v>       0.00000000       0.00000000      10.00000000 </v>
    </varray>
    <i name="volume">   1000.00000000 </i>
    <varray name="rec_basis" >
     <v>       0.10000000       0.00000000       0.00000000 </v>
     <v>       0.00000000       0.10000000       0.00000000 </v>
     <v>       0.00000000       0.00000000       0.10000000 </v>
    </varray>
   </crystal>
   <varray name="positions" >
    <v>       0.29577164       0.52952045       0.50000000 </v>
    <v>       0.49564880       0.61286354       0.58973880 </v>
    <v>       0.49564880       0.61286354       0.41026120 </v>
    <v>       0.70418429       0.50641151       0.50000000 </v>
    <v>       0.60479717       0.38690756       0.58948915 </v>
    <v>       0.60479717       0.38690756       0.41051085 </v>
    <v>       0.60882555       0.45121943       0.50000000 </v>
    <v>       0.49183569       0.54749347       0.50000000 </v>
    <v>       0.37128810       0.46901804       0.50000000 </v>
   </varray>
  </structure>
  <varray name="forces" >
   <v>      -0.22204938       0.15766117       0.00000000 </v>
   <v>      -0.00632959      -0.01947856      -0.03698857 </v>
   <v>      -0.00632959      -0.01947856       0.03698857 </v>
   <v>       0.00632148      -0.02085499       0.00000000 </v>
   <v>       0.04388447       0.00051411      -0.03347845 </v>
   <v>       0.04388447       0.00051411       0.03347845 </v>
   <v>      -0.11639313       0.03587623       0.00000000 </v>
   <v>       0.02756768      -0.02587786       0.00000000 </v>
   <v>       0.22944360      -0.10887565       0.00000000 </v>
  </varray>
  <varray name="stress" >
   <v>      -4.55954948      -0.09950200       0.00000000 </v>
   <v>      -0.09950250      -5.54987836       0.00000000 </v>
   <v>       0.00000000       0.00000000      -6.49589333 </v>
  </varray>
  <energy>
   <i name="e_fr_energy">    -46.86043710 </i>
   <i name="e_wo_entrp">    -46.86043710 </i>
   <i name="e_0_energy">      0.00000000 </i>
  </energy>
  <time name="totalsc">   34.83   34.93</time>
 </calculation>
 <calculation>
  <scstep>
   <time name="dav">    3.43    3.44</time>
   <time name="total">    8.48    8.48</time>
   <energy>
    <i name="alphaZ">      1.57025471 </i>
    <i name="ewald">    535.32533577 </i>
    <i name="hartreedc">  -1210.41072503 </i>
    <i name="XCdc">     73.91446012 </i>
    <i name="pawpsdc">    481.45954305 </i>
    <i name="pawaedc">   -486.07801339 </i>
    <i name="eentropy">      0.00000000 </i>
    <i name="bandstr">   -243.59223332 </i>
    <i name="atom">    800.95065627 </i>
    <i name="e_fr_energy">    -46.86072183 </i>
    <i name="e_wo_entrp">    -46.86072183 </i>
    <i name="e_0_energy">    -46.86072183 </i>
   </energy>
  </scstep>
  <scstep>
   <time name="dav">    4.38    4.38</time>
   <time name="total">    9.25    9.26</time>
   <energy>
    <i name="e_fr_energy">    -46.86089127 </i>
    <i name="e_wo_entrp">    -46.86089127 </i>
    <i name="e_0_energy">    -46.86089127 </i>
   </energy>
  </scstep>
  <scstep>
   <time name="dav">    3.49    3.49</time>
   <time name="total">    7.75    7.76</time>
   <energy>
    <i name="alphaZ">      1.57025471 </i>
    <i name="ewald">    535.32533577 </i>
    <i name="hartreedc">  -1210.38017004 </i>
    <i name="XCdc">     73.91020149 </i>
    <i name="pawpsdc">    481.31272034 </i>
    <i name="pawaedc">   -485.93088739 </i>
    <i name="eentropy">      0.00000000 </i>
    <i name="bandstr">   -243.61898926 </i>
    <i name="atom">    800.95065627 </i>
    <i name="e_fr_energy">    -46.86087811 </i>
    <i name="e_wo_entrp">    -46.86087811 </i>
    <i name="e_0_energy">    -46.86087811 </i>
   </energy>
  </scstep>
  <structure>
   <crystal>
    <varray name="basis" >
     <v>      10.00000000       0.00000000       0.00000000 </v>
     <v>       0.00000000      10.00000000       0.00000000 </v>
     <v>       0.00000000       0.00000000      10.00000000 </v>
    </varray>
    <i name="volume">   1000.00000000 </i>
    <varray name="rec_basis" >
     <v>       0.10000000       0.00000000       0.00000000 </v>
     <v>       0.00000000       0.10000000       0.00000000 </v>
     <v>       0.00000000       0.00000000       0.10000000 </v>
    </varray>
   </crystal>
   <varray name="positions" >
    <v>       0.29590223       0.52964935       0.50000000 </v>
    <v>       0.49568887       0.61283233       0.58966369 </v>
    <v>       0.49568887       0.61283233       0.41033631 </v>
    <v>       0.70409407       0.50641867       0.50000000 </v>
    <v>       0.60468292       0.38700161       0.58943846 </v>
    <v>       0.60468292       0.38700161       0.41056154 </v>
    <v>       0.60866073       0.45130582       0.50000000 </v>
    <v>       0.49188618       0.54745448       0.50000000 </v>
    <v>       0.37151042       0.46870890       0.50000000 </v>
   </varray>
  </structure>
  <varray name="forces" >
   <v>      -0.11302645       0.03734006       0.00000000 </v>
   <v>      -0.01091738      -0.01319182      -0.01928190 </v>
   <v>      -0.01091738      -0.01319182       0.01928190 </v>
   <v>       0.00682669      -0.02593124       0.00000000 </v>
   <v>       0.04690905      -0.00953694      -0.02143144 </v>
   <v>       0.04690905      -0.00953694       0.02143144 </v>
   <v>      -0.03202174       0.01710821       0.00000000 </v>
   <v>       0.00819186      -0.02281923       0.00000000 </v>
   <v>       0.05804630       0.03975974       0.00000000 </v>
  </varray>
  <varray name="stress" >
   <v>      -4.46094859      -0.08555737       0.00000000 </v>
   <v>      -0.08555748      -5.58881864       0.00000000 </v>
   <v>       0.00000000       0.00000000      -6.39130917 </v>
  </varray>
  <energy>
   <i name="e_fr_energy">    -46.86087811 </i>
   <i name="e_wo_entrp">    -46.86087811 </i>
   <i name="e_0_energy">      0.00000000 </i>
  </energy>
  <time name="totalsc">   34.36   34.57</time>
  <eigenvalues>
   <array>
    <dimension dim="1">band</dimension>
    <dimension dim="2">kpoint</dimension>
    <dimension dim="3">spin</dimension>
    <field>eigene</field>
    <field>occ</field>
    <set>
     <set comment="spin 1">
      <set comment="kpoint 1">
       <r>  -25.1363    1.0000 </r>
       <r>  -18.2515    1.0000 </r>
       <r>  -14.6359    1.0000 </r>
       <r>  -12.4093    1.0000 </r>
       <r>  -10.9848    1.0000 </r>
       <r>   -9.4511    1.0000 </r>
       <r>   -8.9536    1.0000 </r>
       <r>   -8.3968    1.0000 </r>
       <r>   -7.6600    1.0000 </r>
       <r>   -5.9302    1.0000 </r>
       <r>   -0.6168    0.0000 </r>
       <r>    0.2855    0.0000 </r>
       <r>    0.6924    0.0000 </r>
       <r>    0.7911    0.0000 </r>
       <r>    0.9821    0.0000 </r>
       <r>    1.0812    0.0000 </r>
      </set>
     </set>
     <set comment="spin 2">
      <set comment="kpoint 1">
       <r>  -25.1363    1.0000 </r>
       <r>  -18.2515    1.0000 </r>
       <r>  -14.6359    1.0000 </r>
       <r>  -12.4093    1.0000 </r>
       <r>  -10.9848    1.0000 </r>
       <r>   -9.4511    1.0000 </r>
       <r>   -8.9536    1.0000 </r>
       <r>   -8.3968    1.0000 </r>
       <r>   -7.6600    1.0000 </r>
       <r>   -5.9302    1.0000 </r>
       <r>   -0.6168    0.0000 </r>
       <r>    0.2856    0.0000 </r>
       <r>    0.6925    0.0000 </r>
       <r>    0.7911    0.0000 </r>
       <r>    0.9821    0.0000 </r>
       <r>    1.0813    0.0000 </r>
      </set>
     </set>
    </set>
   </array>
  </eigenvalues>
  <separator name="orbital magnetization" >
   <v name="MAGDIPOLOUT">      0.00000000      0.00000000      0.00000000</v>
  </separator>
  <dos>
   <i name="efermi">     -4.97591743 </i>
   <total>
    <array>
     <dimension dim="1">gridpoints</dimension>
     <dimension dim="2">spin</dimension>
     <field>energy</field>
     <field>total</field>
     <field>integrated</field>
     <set>
      <set comment="spin 1">
       <r>   -27.1363     0.0000     0.0000 </r>
       <r>   -27.0355     0.0000     0.0000 </r>
       <r>   -26.9348     0.0000     0.0000 </r>
       <r>   -26.8341     0.0000     0.0000 </r>
       <r>   -26.7334     0.0000     0.0000 </r>
       <r>   -26.6326     0.0000     0.0000 </r>
       <r>   -26.5319     0.0000     0.0000 </r>
       <r>   -26.4312     0.0000     0.0000 </r>
       <r>   -26.3305     0.0000     0.0000 </r>
       <r>   -26.2297     0.0000     0.0000 </r>
       <r>   -26.1290     0.0000     0.0000 </r>
       <r>   -26.0283     0.0000     0.0000 </r>
       <r>   -25.9276     0.0000     0.0000 </r>
       <r>   -25.8268     0.0000     0.0000 </r>
       <r>   -25.7261     0.0001     0.0000 </r>
       <r>   -25.6254     0.0025     0.0003 </r>
       <r>   -25.5247     0.0272     0.0030 </r>
       <r>   -25.4239     0.1783     0.0210 </r>
       <r>   -25.3232     0.7161     0.0931 </r>
       <r>   -25.2225     1.7666     0.2710 </r>
       <r>   -25.1218     2.6786     0.5408 </r>
       <r>   -25.0210     2.4975     0.7924 </r>
       <r>   -24.9203     1.4318     0.9366 </r>
       <r>   -24.8196     0.5044     0.9874 </r>
       <r>   -24.7189     0.1091     0.9984 </r>
       <r>   -24.6181     0.0145     0.9999 </r>
       <r>   -24.5174     0.0012     1.0000 </r>
       <r>   -24.4167     0.0001     1.0000 </r>
       <r>   -24.3160     0.0000     1.0000 </r>
       <r>   -24.2152     0.0000     1.0000 </r>
       <r>   -24.1145     0.0000     1.0000 </r>
       <r>   -24.0138     0.0000     1.0000 </r>
       <r>   -23.9131     0.0000     1.0000 </r>
       <r>   -23.8123     0.0000     1.0000 </r>
       <r>   -23.7116     0.0000     1.0000 </r>
       <r>   -23.6109     0.0000     1.0000 </r>
       <r>   -23.5102     0.0000     1.0000 </r>
       <r>   -23.4094     0.0000     1.0000 </r>
       <r>   -23.3087     0.0000     1.0000 </r>
       <r>   -23.2080     0.0000     1.0000 </r>
       <r>   -23.1073     0.0000     1.0000 </r>
       <r>   -23.0065     0.0000     1.0000 </r>
       <r>   -22.9058     0.0000     1.0000 </r>
       <r>   -22.8051     0.0000     1.0000 </r>
       <r>   -22.7044     0.0000     1.0000 </r>
       <r>   -22.6036     0.0000     1.0000 </r>
       <r>   -22.5029     0.0000     1.0000 </r>
       <r>   -22.4022     0.0000     1.0000 </r>
       <r>   -22.3015     0.0000     1.0000 </r>
       <r>   -22.2007     0.0000     1.0000 </r>
       <r>   -22.1000     0.0000     1.0000 </r>
       <r>   -21.9993     0.0000     1.0000 </r>
       <r>   -21.8986     0.0000     1.0000 </r>
       <r>   -21.7978     0.0000     1.0000 </r>
       <r>   -21.6971     0.0000     1.0000 </r>
       <r>   -21.5964     0.0000     1.0000 </r>
       <r>   -21.4957     0.0000     1.0000 </r>
       <r>   -21.3949     0.0000     1.0000 </r>
       <r>   -21.2942     0.0000     1.0000 </r>
       <r>   -21.1935     0.0000     1.0000 </r>
       <r>   -21.0928     0.0000     1.0000 </r>
       <r>   -20.9920     0.0000     1.0000 </r>
       <r>   -20.8913     0.0000     1.0000 </r>
       <r>   -20.7906     0.0000     1.0000 </r>
       <r>   -20.6899     0.0000     1.0000 </r>
       <r>   -20.5891     0.0000     1.0000 </r>
       <r>   -20.4884     0.0000     1.0000 </r>
       <r>   -20.3877     0.0000     1.0000 </r>
       <r>   -20.2870     0.0000     1.0000 </r>
       <r>   -20.1862     0.0000     1.0000 </r>
       <r>   -20.0855     0.0000     1.0000 </r>
       <r>   -19.9848     0.0000     1.0000 </r>
       <r>   -19.8840     0.0000     1.0000 </r>
       <r>   -19.7833     0.0000     1.0000 </r>
       <r>   -19.6826     0.0000     1.0000 </r>
       <r>   -19.5819     0.0000     1.0000 </r>
       <r>   -19.4811     0.0000     1.0000 </r>
       <r>   -19.3804     0.0000     1.0000 </r>
       <r>   -19.2797     0.0000     1.0000 </r>
       <r>   -19.1790     0.0000     1.0000 </r>
       <r>   -19.0782     0.0000     1.0000 </r>
       <r>   -18.9775     0.0000     1.0000 </r>
       <r>   -18.8768     0.0000     1.0000 </r>
       <r>   -18.7761     0.0010     1.0001 </r>
       <r>   -18.6753     0.0125     1.0014 </r>
       <r>   -18.5746     0.0972     1.0112 </r>
       <r>   -18.4739     0.4639     1.0579 </r>
       <r>   -18.3732     1.3588     1.1947 </r>
       <r>   -18.2724     2.4453     1.4411 </r>
       <r>   -18.1717     2.7058     1.7136 </r>
       <r>   -18.0710     1.8411     1.8991 </r>
       <r>   -17.9703     0.7700     1.9766 </r>
       <r>   -17.8695     0.1978     1.9965 </r>
       <r>   -17.7688     0.0312     1.9997 </r>
       <r>   -17.6681     0.0030     2.0000 </r>
       <r>   -17.5674     0.0002     2.0000 </r>
       <r>   -17.4666     0.0000     2.0000 </r>
       <r>   -17.3659     0.0000     2.0000 </r>
       <r>   -17.2652     0.0000     2.0000 </r>
       <r>   -17.1645     0.0000     2.0000 </r>
       <r>   -17.0637     0.0000     2.0000 </r>
       <r>   -16.9630     0.0000     2.0000 </r>
       <r>   -16.8623     0.0000     2.0000 </r>
       <r>   -16.7616     0.0000     2.0000 </r>
       <r>   -16.6608     0.0000     2.0000 </r>
       <r>   -16.5601     0.0000     2.0000 </r>
       <r>   -16.4594     0.0000     2.0000 </r>
       <r>   -16.3587     0.0000     2.0000 </r>
       <r>   -16.2579     0.0000     2.0000 </r>
       <r>   -16.1572     0.0000     2.0000 </r>
       <r>   -16.0565     0.0000     2.0000 </r>
       <r>   -15.9558     0.0000     2.0000 </r>
       <r>   -15.8550     0.0000     2.0000 </r>
       <r>   -15.7543     0.0000     2.0000 </r>
       <r>   -15.6536     0.0000     2.0000 </r>
       <r>   -15.5529     0.0000     2.0000 </r>
       <r>   -15.4521     0.0000     2.0000 </r>
       <r>   -15.3514     0.0000     2.0000 </r>
       <r>   -15.2507     0.0001     2.0000 </r>
       <r>   -15.1500     0.0013     2.0001 </r>
       <r>   -15.0492     0.0158     2.0017 </r>
       <r>   -14.9485     0.1171     2.0135 </r>
       <r>   -14.8478     0.5309     2.0670 </r>
       <r>   -14.7471     1.4779     2.2159 </r>
       <r>   -14.6463     2.5281     2.4705 </r>
       <r>   -14.5456     2.6591     2.7383 </r>
       <r>   -14.4449     1.7198     2.9116 </r>
       <r>   -14.3442     0.6837     2.9804 </r>
       <r>   -14.2434     0.1669     2.9972 </r>
       <r>   -14.1427     0.0250     2.9998 </r>
       <r>   -14.0420     0.0023     3.0000 </r>
       <r>   -13.9413     0.0001     3.0000 </r>
       <r>   -13.8405     0.0000     3.0000 </r>
       <r>   -13.7398     0.0000     3.0000 </r>
       <r>   -13.6391     0.0000     3.0000 </r>
       <r>   -13.5384     0.0000     3.0000 </r>
       <r>   -13.4376     0.0000     3.0000 </r>
       <r>   -13.3369     0.0000     3.0000 </r>
       <r>   -13.2362     0.0000     3.0000 </r>
       <r>   -13.1355     0.0000     3.0000 </r>
       <r>   -13.0347     0.0000     3.0000 </r>
       <r>   -12.9340     0.0010     3.0001 </r>
       <r>   -12.8333     0.0125     3.0014 </r>
       <r>   -12.7326     0.0971     3.0111 </r>
       <r>   -12.6318     0.4634     3.0578 </r>
       <r>   -12.5311     1.3578     3.1946 </r>
       <r>   -12.4304     2.4446     3.4408 </r>
       <r>   -12.3297     2.7062     3.7134 </r>
       <r>   -12.2289     1.8422     3.8989 </r>
       <r>   -12.1282     0.7708     3.9766 </r>
       <r>   -12.0275     0.1981     3.9965 </r>
       <r>   -11.9268     0.0312     3.9997 </r>
       <r>   -11.8260     0.0030     4.0000 </r>
       <r>   -11.7253     0.0002     4.0000 </r>
       <r>   -11.6246     0.0000     4.0000 </r>
       <r>   -11.5238     0.0007     4.0001 </r>
       <r>   -11.4231     0.0089     4.0010 </r>
       <r>   -11.3224     0.0747     4.0085 </r>
       <r>   -11.2217     0.3823     4.0470 </r>
       <r>   -11.1209     1.2004     4.1679 </r>
       <r>   -11.0202     2.3162     4.4012 </r>
       <r>   -10.9195     2.7476     4.6780 </r>
       <r>   -10.8188     2.0043     4.8799 </r>
       <r>   -10.7180     0.8988     4.9704 </r>
       <r>   -10.6173     0.2476     4.9953 </r>
       <r>   -10.5166     0.0418     4.9995 </r>
       <r>   -10.4159     0.0043     5.0000 </r>
       <r>   -10.3151     0.0003     5.0000 </r>
       <r>   -10.2144     0.0000     5.0000 </r>
       <r>   -10.1137     0.0000     5.0000 </r>
       <r>   -10.0130     0.0003     5.0000 </r>
       <r>    -9.9122     0.0052     5.0006 </r>
       <r>    -9.8115     0.0482     5.0054 </r>
       <r>    -9.7108     0.2757     5.0332 </r>
       <r>    -9.6101     0.9668     5.1306 </r>
       <r>    -9.5093     2.0831     5.3404 </r>
       <r>    -9.4086     2.7644     5.6188 </r>
       <r>    -9.3079     2.3008     5.8506 </r>
       <r>    -9.2072     1.4264     5.9943 </r>
       <r>    -9.1064     1.3730     6.1325 </r>
       <r>    -9.0057     2.2135     6.3555 </r>
       <r>    -8.9050     2.7713     6.6346 </r>
       <r>    -8.8043     2.2028     6.8565 </r>
       <r>    -8.7035     1.1916     6.9765 </r>
       <r>    -8.6028     0.8887     7.0661 </r>
       <r>    -8.5021     1.6041     7.2276 </r>
       <r>    -8.4014     2.5765     7.4871 </r>
       <r>    -8.3006     2.6274     7.7518 </r>
       <r>    -8.1999     1.6517     7.9182 </r>
       <r>    -8.0992     0.6466     7.9833 </r>
       <r>    -7.9985     0.2247     8.0059 </r>
       <r>    -7.8977     0.3995     8.0462 </r>
       <r>    -7.7970     1.1926     8.1663 </r>
       <r>    -7.6963     2.3076     8.3987 </r>
       <r>    -7.5956     2.7494     8.6757 </r>
       <r>    -7.4948     2.0144     8.8786 </r>
       <r>    -7.3941     0.9073     8.9699 </r>
       <r>    -7.2934     0.2510     8.9952 </r>
       <r>    -7.1927     0.0426     8.9995 </r>
       <r>    -7.0919     0.0044     9.0000 </r>
       <r>    -6.9912     0.0003     9.0000 </r>
       <r>    -6.8905     0.0000     9.0000 </r>
       <r>    -6.7898     0.0000     9.0000 </r>
       <r>    -6.6890     0.0000     9.0000 </r>
       <r>    -6.5883     0.0000     9.0000 </r>
       <r>    -6.4876     0.0004     9.0000 </r>
       <r>    -6.3869     0.0058     9.0006 </r>
       <r>    -6.2861     0.0526     9.0059 </r>
       <r>    -6.1854     0.2943     9.0356 </r>
       <r>    -6.0847     1.0102     9.1373 </r>
       <r>    -5.9840     2.1302     9.3519 </r>
       <r>    -5.8832     2.7617     9.6300 </r>
       <r>    -5.7825     2.2016     9.8518 </r>
       <r>    -5.6818     1.0791     9.9605 </r>
       <r>    -5.5811     0.3249     9.9932 </r>
       <r>    -5.4803     0.0600     9.9993 </r>
       <r>    -5.3796     0.0068    10.0000 </r>
       <r>    -5.2789     0.0005    10.0000 </r>
       <r>    -5.1782     0.0000    10.0000 </r>
       <r>    -5.0774     0.0000    10.0000 </r>
       <r>    -4.9767     0.0000    10.0000 </r>
       <r>    -4.8760     0.0000    10.0000 </r>
       <r>    -4.7753     0.0000    10.0000 </r>
       <r>    -4.6745     0.0000    10.0000 </r>
       <r>    -4.5738     0.0000    10.0000 </r>
       <r>    -4.4731     0.0000    10.0000 </r>
       <r>    -4.3724     0.0000    10.0000 </r>
       <r>    -4.2716     0.0000    10.0000 </r>
       <r>    -4.1709     0.0000    10.0000 </r>
       <r>    -4.0702     0.0000    10.0000 </r>
       <r>    -3.9695     0.0000    10.0000 </r>
       <r>    -3.8687     0.0000    10.0000 </r>
       <r>    -3.7680     0.0000    10.0000 </r>
       <r>    -3.6673     0.0000    10.0000 </r>
       <r>    -3.5666     0.0000    10.0000 </r>
       <r>    -3.4658     0.0000    10.0000 </r>
       <r>    -3.3651     0.0000    10.0000 </r>
       <r>    -3.2644     0.0000    10.0000 </r>
       <r>    -3.1636     0.0000    10.0000 </r>
       <r>    -3.0629     0.0000    10.0000 </r>
       <r>    -2.9622     0.0000    10.0000 </r>
       <r>    -2.8615     0.0000    10.0000 </r>
       <r>    -2.7607     0.0000    10.0000 </r>
       <r>    -2.6600     0.0000    10.0000 </r>
       <r>    -2.5593     0.0000    10.0000 </r>
       <r>    -2.4586     0.0000    10.0000 </r>
       <r>    -2.3578     0.0000    10.0000 </r>
       <r>    -2.2571     0.0000    10.0000 </r>
       <r>    -2.1564     0.0000    10.0000 </r>
       <r>    -2.0557     0.0000    10.0000 </r>
       <r>    -1.9549     0.0000    10.0000 </r>
       <r>    -1.8542     0.0000    10.0000 </r>
       <r>    -1.7535     0.0000    10.0000 </r>
       <r>    -1.6528     0.0000    10.0000 </r>
       <r>    -1.5520     0.0000    10.0000 </r>
       <r>    -1.4513     0.0000    10.0000 </r>
       <r>    -1.3506     0.0000    10.0000 </r>
       <r>    -1.2499     0.0000    10.0000 </r>
       <r>    -1.1491     0.0008    10.0001 </r>
       <r>    -1.0484     0.0105    10.0011 </r>
       <r>    -0.9477     0.0846    10.0097 </r>
       <r>    -0.8470     0.4189    10.0518 </r>
       <r>    -0.7462     1.2733    10.1801 </r>
       <r>    -0.6455     2.3784    10.4197 </r>
       <r>    -0.5448     2.7315    10.6948 </r>
       <r>    -0.4441     1.9290    10.8891 </r>
       <r>    -0.3433     0.8374    10.9734 </r>
       <r>    -0.2426     0.2242    10.9960 </r>
       <r>    -0.1419     0.0480    11.0009 </r>
       <r>    -0.0412     0.0949    11.0104 </r>
       <r>     0.0596     0.4430    11.0550 </r>
       <r>     0.1603     1.3200    11.1880 </r>
       <r>     0.2610     2.4264    11.4324 </r>
       <r>     0.3617     2.8145    11.7159 </r>
       <r>     0.4625     2.3908    11.9567 </r>
       <r>     0.5632     2.5225    12.2108 </r>
       <r>     0.6639     4.0077    12.6145 </r>
       <r>     0.7646     5.7671    13.1953 </r>
       <r>     0.8654     6.5751    13.8576 </r>
       <r>     0.9661     6.6582    14.5283 </r>
       <r>     1.0668     6.2236    15.1551 </r>
       <r>     1.1675     4.7142    15.6300 </r>
       <r>     1.2683     2.5326    15.8851 </r>
       <r>     1.3690     0.9018    15.9759 </r>
       <r>     1.4697     0.2064    15.9967 </r>
       <r>     1.5704     0.0298    15.9997 </r>
       <r>     1.6712     0.0027    16.0000 </r>
       <r>     1.7719     0.0002    16.0000 </r>
       <r>     1.8726     0.0000    16.0000 </r>
       <r>     1.9733     0.0000    16.0000 </r>
       <r>     2.0741     0.0000    16.0000 </r>
       <r>     2.1748     0.0000    16.0000 </r>
       <r>     2.2755     0.0000    16.0000 </r>
       <r>     2.3762     0.0000    16.0000 </r>
       <r>     2.4770     0.0000    16.0000 </r>
       <r>     2.5777     0.0000    16.0000 </r>
       <r>     2.6784     0.0000    16.0000 </r>
       <r>     2.7791     0.0000    16.0000 </r>
       <r>     2.8799     0.0000    16.0000 </r>
       <r>     2.9806     0.0000    16.0000 </r>
       <r>     3.0813     0.0000    16.0000 </r>
      </set>
      <set comment="spin 2">
       <r>   -27.1363     0.0000     0.0000 </r>
       <r>   -27.0355     0.0000     0.0000 </r>
       <r>   -26.9348     0.0000     0.0000 </r>
       <r>   -26.8341     0.0000     0.0000 </r>
       <r>   -26.7334     0.0000     0.0000 </r>
       <r>   -26.6326     0.0000     0.0000 </r>
       <r>   -26.5319     0.0000     0.0000 </r>
       <r>   -26.4312     0.0000     0.0000 </r>
       <r>   -26.3305     0.0000     0.0000 </r>
       <r>   -26.2297     0.0000     0.0000 </r>
       <r>   -26.1290     0.0000     0.0000 </r>
       <r>   -26.0283     0.0000     0.0000 </r>
       <r>   -25.9276     0.0000     0.0000 </r>
       <r>   -25.8268     0.0000     0.0000 </r>
       <r>   -25.7261     0.0001     0.0000 </r>
       <r>   -25.6254     0.0025     0.0003 </r>
       <r>   -25.5247     0.0272     0.0030 </r>
       <r>   -25.4239     0.1783     0.0210 </r>
       <r>   -25.3232     0.7161     0.0931 </r>
       <r>   -25.2225     1.7665     0.2710 </r>
       <r>   -25.1218     2.6786     0.5408 </r>
       <r>   -25.0210     2.4975     0.7924 </r>
       <r>   -24.9203     1.4318     0.9366 </r>
       <r>   -24.8196     0.5044     0.9874 </r>
       <r>   -24.7189     0.1091     0.9984 </r>
       <r>   -24.6181     0.0145     0.9999 </r>
       <r>   -24.5174     0.0012     1.0000 </r>
       <r>   -24.4167     0.0001     1.0000 </r>
       <r>   -24.3160     0.0000     1.0000 </r>
       <r>   -24.2152     0.0000     1.0000 </r>
       <r>   -24.1145     0.0000     1.0000 </r>
       <r>   -24.0138     0.0000     1.0000 </r>
       <r>   -23.9131     0.0000     1.0000 </r>
       <r>   -23.8123     0.0000     1.0000 </r>
       <r>   -23.7116     0.0000     1.0000 </r>
       <r>   -23.6109     0.0000     1.0000 </r>
       <r>   -23.5102     0.0000     1.0000 </r>
       <r>   -23.4094     0.0000     1.0000 </r>
       <r>   -23.3087     0.0000     1.0000 </r>
       <r>   -23.2080     0.0000     1.0000 </r>
       <r>   -23.1073     0.0000     1.0000 </r>
       <r>   -23.0065     0.0000     1.0000 </r>
       <r>   -22.9058     0.0000     1.0000 </r>
       <r>   -22.8051     0.0000     1.0000 </r>
       <r>   -22.7044     0.0000     1.0000 </r>
       <r>   -22.6036     0.0000     1.0000 </r>
       <r>   -22.5029     0.0000     1.0000 </r>
       <r>   -22.4022     0.0000     1.0000 </r>
       <r>   -22.3015     0.0000     1.0000 </r>
       <r>   -22.2007     0.0000     1.0000 </r>
       <r>   -22.1000     0.0000     1.0000 </r>
       <r>   -21.9993     0.0000     1.0000 </r>
       <r>   -21.8986     0.0000     1.0000 </r>
       <r>   -21.7978     0.0000     1.0000 </r>
       <r>   -21.6971     0.0000     1.0000 </r>
       <r>   -21.5964     0.0000     1.0000 </r>
       <r>   -21.4957     0.0000     1.0000 </r>
       <r>   -21.3949     0.0000     1.0000 </r>
       <r>   -21.2942     0.0000     1.0000 </r>
       <r>   -21.1935     0.0000     1.0000 </r>
       <r>   -21.0928     0.0000     1.0000 </r>
       <r>   -20.9920     0.0000     1.0000 </r>
       <r>   -20.8913     0.0000     1.0000 </r>
       <r>   -20.7906     0.0000     1.0000 </r>
       <r>   -20.6899     0.0000     1.0000 </r>
       <r>   -20.5891     0.0000     1.0000 </r>
       <r>   -20.4884     0.0000     1.0000 </r>
       <r>   -20.3877     0.0000     1.0000 </r>
       <r>   -20.2870     0.0000     1.0000 </r>
       <r>   -20.1862     0.0000     1.0000 </r>
       <r>   -20.0855     0.0000     1.0000 </r>
       <r>   -19.9848     0.0000     1.0000 </r>
       <r>   -19.8840     0.0000     1.0000 </r>
       <r>   -19.7833     0.0000     1.0000 </r>
       <r>   -19.6826     0.0000     1.0000 </r>
       <r>   -19.5819     0.0000     1.0000 </r>
       <r>   -19.4811     0.0000     1.0000 </r>
       <r>   -19.3804     0.0000     1.0000 </r>
       <r>   -19.2797     0.0000     1.0000 </r>
       <r>   -19.1790     0.0000     1.0000 </r>
       <r>   -19.0782     0.0000     1.0000 </r>
       <r>   -18.9775     0.0000     1.0000 </r>
       <r>   -18.8768     0.0000     1.0000 </r>
       <r>   -18.7761     0.0010     1.0001 </r>
       <r>   -18.6753     0.0125     1.0014 </r>
       <r>   -18.5746     0.0972     1.0112 </r>
       <r>   -18.4739     0.4639     1.0579 </r>
       <r>   -18.3732     1.3586     1.1947 </r>
       <r>   -18.2724     2.4452     1.4410 </r>
       <r>   -18.1717     2.7059     1.7136 </r>
       <r>   -18.0710     1.8413     1.8990 </r>
       <r>   -17.9703     0.7702     1.9766 </r>
       <r>   -17.8695     0.1978     1.9965 </r>
       <r>   -17.7688     0.0312     1.9997 </r>
       <r>   -17.6681     0.0030     2.0000 </r>
       <r>   -17.5674     0.0002     2.0000 </r>
       <r>   -17.4666     0.0000     2.0000 </r>
       <r>   -17.3659     0.0000     2.0000 </r>
       <r>   -17.2652     0.0000     2.0000 </r>
       <r>   -17.1645     0.0000     2.0000 </r>
       <r>   -17.0637     0.0000     2.0000 </r>
       <r>   -16.9630     0.0000     2.0000 </r>
       <r>   -16.8623     0.0000     2.0000 </r>
       <r>   -16.7616     0.0000     2.0000 </r>
       <r>   -16.6608     0.0000     2.0000 </r>
       <r>   -16.5601     0.0000     2.0000 </r>
       <r>   -16.4594     0.0000     2.0000 </r>
       <r>   -16.3587     0.0000     2.0000 </r>
       <r>   -16.2579     0.0000     2.0000 </r>
       <r>   -16.1572     0.0000     2.0000 </r>
       <r>   -16.0565     0.0000     2.0000 </r>
       <r>   -15.9558     0.0000     2.0000 </r>
       <r>   -15.8550     0.0000     2.0000 </r>
       <r>   -15.7543     0.0000     2.0000 </r>
       <r>   -15.6536     0.0000     2.0000 </r>
       <r>   -15.5529     0.0000     2.0000 </r>
       <r>   -15.4521     0.0000     2.0000 </r>
       <r>   -15.3514     0.0000     2.0000 </r>
       <r>   -15.2507     0.0001     2.0000 </r>
       <r>   -15.1500     0.0013     2.0001 </r>
       <r>   -15.0492     0.0158     2.0017 </r>
       <r>   -14.9485     0.1171     2.0135 </r>
       <r>   -14.8478     0.5309     2.0670 </r>
       <r>   -14.7471     1.4778     2.2158 </r>
       <r>   -14.6463     2.5280     2.4705 </r>
       <r>   -14.5456     2.6591     2.7383 </r>
       <r>   -14.4449     1.7199     2.9116 </r>
       <r>   -14.3442     0.6837     2.9804 </r>
       <r>   -14.2434     0.1669     2.9972 </r>
       <r>   -14.1427     0.0250     2.9998 </r>
       <r>   -14.0420     0.0023     3.0000 </r>
       <r>   -13.9413     0.0001     3.0000 </r>
       <r>   -13.8405     0.0000     3.0000 </r>
       <r>   -13.7398     0.0000     3.0000 </r>
       <r>   -13.6391     0.0000     3.0000 </r>
       <r>   -13.5384     0.0000     3.0000 </r>
       <r>   -13.4376     0.0000     3.0000 </r>
       <r>   -13.3369     0.0000     3.0000 </r>
       <r>   -13.2362     0.0000     3.0000 </r>
       <r>   -13.1355     0.0000     3.0000 </r>
       <r>   -13.0347     0.0000     3.0000 </r>
       <r>   -12.9340     0.0010     3.0001 </r>
       <r>   -12.8333     0.0125     3.0014 </r>
       <r>   -12.7326     0.0971     3.0111 </r>
       <r>   -12.6318     0.4634     3.0578 </r>
       <r>   -12.5311     1.3577     3.1946 </r>
       <r>   -12.4304     2.4446     3.4408 </r>
       <r>   -12.3297     2.7062     3.7134 </r>
       <r>   -12.2289     1.8422     3.8989 </r>
       <r>   -12.1282     0.7708     3.9766 </r>
       <r>   -12.0275     0.1981     3.9965 </r>
       <r>   -11.9268     0.0312     3.9997 </r>
       <r>   -11.8260     0.0030     4.0000 </r>
       <r>   -11.7253     0.0002     4.0000 </r>
       <r>   -11.6246     0.0000     4.0000 </r>
       <r>   -11.5238     0.0007     4.0001 </r>
       <r>   -11.4231     0.0089     4.0010 </r>
       <r>   -11.3224     0.0747     4.0085 </r>
       <r>   -11.2217     0.3822     4.0470 </r>
       <r>   -11.1209     1.2004     4.1679 </r>
       <r>   -11.0202     2.3161     4.4012 </r>
       <r>   -10.9195     2.7476     4.6780 </r>
       <r>   -10.8188     2.0044     4.8798 </r>
       <r>   -10.7180     0.8988     4.9704 </r>
       <r>   -10.6173     0.2476     4.9953 </r>
       <r>   -10.5166     0.0418     4.9995 </r>
       <r>   -10.4159     0.0043     5.0000 </r>
       <r>   -10.3151     0.0003     5.0000 </r>
       <r>   -10.2144     0.0000     5.0000 </r>
       <r>   -10.1137     0.0000     5.0000 </r>
       <r>   -10.0130     0.0003     5.0000 </r>
       <r>    -9.9122     0.0052     5.0006 </r>
       <r>    -9.8115     0.0482     5.0054 </r>
       <r>    -9.7108     0.2756     5.0332 </r>
       <r>    -9.6101     0.9667     5.1305 </r>
       <r>    -9.5093     2.0830     5.3404 </r>
       <r>    -9.4086     2.7644     5.6188 </r>
       <r>    -9.3079     2.3009     5.8506 </r>
       <r>    -9.2072     1.4265     5.9942 </r>
       <r>    -9.1064     1.3729     6.1325 </r>
       <r>    -9.0057     2.2133     6.3555 </r>
       <r>    -8.9050     2.7713     6.6346 </r>
       <r>    -8.8043     2.2030     6.8565 </r>
       <r>    -8.7035     1.1917     6.9765 </r>
       <r>    -8.6028     0.8887     7.0660 </r>
       <r>    -8.5021     1.6040     7.2276 </r>
       <r>    -8.4014     2.5764     7.4871 </r>
       <r>    -8.3006     2.6274     7.7518 </r>
       <r>    -8.1999     1.6519     7.9182 </r>
       <r>    -8.0992     0.6466     7.9833 </r>
       <r>    -7.9985     0.2247     8.0059 </r>
       <r>    -7.8977     0.3994     8.0462 </r>
       <r>    -7.7970     1.1925     8.1663 </r>
       <r>    -7.6963     2.3075     8.3987 </r>
       <r>    -7.5956     2.7494     8.6756 </r>
       <r>    -7.4948     2.0145     8.8785 </r>
       <r>    -7.3941     0.9074     8.9699 </r>
       <r>    -7.2934     0.2510     8.9952 </r>
       <r>    -7.1927     0.0426     8.9995 </r>
       <r>    -7.0919     0.0044     9.0000 </r>
       <r>    -6.9912     0.0003     9.0000 </r>
       <r>    -6.8905     0.0000     9.0000 </r>
       <r>    -6.7898     0.0000     9.0000 </r>
       <r>    -6.6890     0.0000     9.0000 </r>
       <r>    -6.5883     0.0000     9.0000 </r>
       <r>    -6.4876     0.0004     9.0000 </r>
       <r>    -6.3869     0.0058     9.0006 </r>
       <r>    -6.2861     0.0526     9.0059 </r>
       <r>    -6.1854     0.2943     9.0356 </r>
       <r>    -6.0847     1.0102     9.1373 </r>
       <r>    -5.9840     2.1303     9.3519 </r>
       <r>    -5.8832     2.7617     9.6301 </r>
       <r>    -5.7825     2.2016     9.8518 </r>
       <r>    -5.6818     1.0790     9.9605 </r>
       <r>    -5.5811     0.3249     9.9932 </r>
       <r>    -5.4803     0.0600     9.9993 </r>
       <r>    -5.3796     0.0068    10.0000 </r>
       <r>    -5.2789     0.0005    10.0000 </r>
       <r>    -5.1782     0.0000    10.0000 </r>
       <r>    -5.0774     0.0000    10.0000 </r>
       <r>    -4.9767     0.0000    10.0000 </r>
       <r>    -4.8760     0.0000    10.0000 </r>
       <r>    -4.7753     0.0000    10.0000 </r>
       <r>    -4.6745     0.0000    10.0000 </r>
       <r>    -4.5738     0.0000    10.0000 </r>
       <r>    -4.4731     0.0000    10.0000 </r>
       <r>    -4.3724     0.0000    10.0000 </r>
       <r>    -4.2716     0.0000    10.0000 </r>
       <r>    -4.1709     0.0000    10.0000 </r>
       <r>    -4.0702     0.0000    10.0000 </r>
       <r>    -3.9695     0.0000    10.0000 </r>
       <r>    -3.8687     0.0000    10.0000 </r>
       <r>    -3.7680     0.0000    10.0000 </r>
       <r>    -3.6673     0.0000    10.0000 </r>
       <r>    -3.5666     0.0000    10.0000 </r>
       <r>    -3.4658     0.0000    10.0000 </r>
       <r>    -3.3651     0.0000    10.0000 </r>
       <r>    -3.2644     0.0000    10.0000 </r>
       <r>    -3.1636     0.0000    10.0000 </r>
       <r>    -3.0629     0.0000    10.0000 </r>
       <r>    -2.9622     0.0000    10.0000 </r>
       <r>    -2.8615     0.0000    10.0000 </r>
       <r>    -2.7607     0.0000    10.0000 </r>
       <r>    -2.6600     0.0000    10.0000 </r>
       <r>    -2.5593     0.0000    10.0000 </r>
       <r>    -2.4586     0.0000    10.0000 </r>
       <r>    -2.3578     0.0000    10.0000 </r>
       <r>    -2.2571     0.0000    10.0000 </r>
       <r>    -2.1564     0.0000    10.0000 </r>
       <r>    -2.0557     0.0000    10.0000 </r>
       <r>    -1.9549     0.0000    10.0000 </r>
       <r>    -1.8542     0.0000    10.0000 </r>
       <r>    -1.7535     0.0000    10.0000 </r>
       <r>    -1.6528     0.0000    10.0000 </r>
       <r>    -1.5520     0.0000    10.0000 </r>
       <r>    -1.4513     0.0000    10.0000 </r>
       <r>    -1.3506     0.0000    10.0000 </r>
       <r>    -1.2499     0.0000    10.0000 </r>
       <r>    -1.1491     0.0008    10.0001 </r>
       <r>    -1.0484     0.0105    10.0011 </r>
       <r>    -0.9477     0.0845    10.0096 </r>
       <r>    -0.8470     0.4186    10.0518 </r>
       <r>    -0.7462     1.2729    10.1800 </r>
       <r>    -0.6455     2.3780    10.4196 </r>
       <r>    -0.5448     2.7316    10.6947 </r>
       <r>    -0.4441     1.9295    10.8890 </r>
       <r>    -0.3433     0.8378    10.9734 </r>
       <r>    -0.2426     0.2243    10.9960 </r>
       <r>    -0.1419     0.0481    11.0009 </r>
       <r>    -0.0412     0.0948    11.0104 </r>
       <r>     0.0596     0.4429    11.0550 </r>
       <r>     0.1603     1.3198    11.1880 </r>
       <r>     0.2610     2.4263    11.4323 </r>
       <r>     0.3617     2.8145    11.7158 </r>
       <r>     0.4625     2.3907    11.9566 </r>
       <r>     0.5632     2.5219    12.2107 </r>
       <r>     0.6639     4.0069    12.6142 </r>
       <r>     0.7646     5.7665    13.1951 </r>
       <r>     0.8654     6.5749    13.8573 </r>
       <r>     0.9661     6.6580    14.5280 </r>
       <r>     1.0668     6.2237    15.1549 </r>
       <r>     1.1675     4.7150    15.6298 </r>
       <r>     1.2683     2.5337    15.8850 </r>
       <r>     1.3690     0.9025    15.9759 </r>
       <r>     1.4697     0.2066    15.9967 </r>
       <r>     1.5704     0.0299    15.9997 </r>
       <r>     1.6712     0.0027    16.0000 </r>
       <r>     1.7719     0.0002    16.0000 </r>
       <r>     1.8726     0.0000    16.0000 </r>
       <r>     1.9733     0.0000    16.0000 </r>
       <r>     2.0741     0.0000    16.0000 </r>
       <r>     2.1748     0.0000    16.0000 </r>
       <r>     2.2755     0.0000    16.0000 </r>
       <r>     2.3762     0.0000    16.0000 </r>
       <r>     2.4770     0.0000    16.0000 </r>
       <r>     2.5777     0.0000    16.0000 </r>
       <r>     2.6784     0.0000    16.0000 </r>
       <r>     2.7791     0.0000    16.0000 </r>
       <r>     2.8799     0.0000    16.0000 </r>
       <r>     2.9806     0.0000    16.0000 </r>
       <r>     3.0813     0.0000    16.0000 </r>
      </set>
     </set>
    </array>
   </total>
  </dos>
 </calculation>
 <structure name="finalpos" >
  <crystal>
   <varray name="basis" >
    <v>      10.00000000       0.00000000       0.00000000 </v>
    <v>       0.00000000      10.00000000       0.00000000 </v>
    <v>       0.00000000       0.00000000      10.00000000 </v>
   </varray>
   <i name="volume">   1000.00000000 </i>
   <varray name="rec_basis" >
    <v>       0.10000000       0.00000000       0.00000000 </v>
    <v>       0.00000000       0.10000000       0.00000000 </v>
    <v>       0.00000000       0.00000000       0.10000000 </v>
   </varray>
  </crystal>
  <varray name="positions" >
   <v>       0.29590223       0.52964935       0.50000000 </v>
   <v>       0.49568887       0.61283233       0.58966369 </v>
   <v>       0.49568887       0.61283233       0.41033631 </v>
   <v>       0.70409407       0.50641867       0.50000000 </v>
   <v>       0.60468292       0.38700161       0.58943846 </v>
   <v>       0.60468292       0.38700161       0.41056154 </v>
   <v>       0.60866073       0.45130582       0.50000000 </v>
   <v>       0.49188618       0.54745448       0.50000000 </v>
   <v>       0.37151042       0.46870890       0.50000000 </v>
  </varray>
 </structure>
</modeling>
