   2   2   0   0
  0.5000000E+03  0.1000000E-08  0.1000000E-08  0.1000000E-08  0.5000000E-15
  1.000000000000000E-004
  CAR 
 unknown system                          
     -0.05083134    -30.00801420  301     -9.03720607      1.00000000
    -30.008  0.0000E+00  0.0000E+00  0.0000E+00  0.0000E+00
    -29.908  0.0000E+00  0.0000E+00  0.0000E+00  0.0000E+00
    -29.808  0.0000E+00  0.0000E+00  0.0000E+00  0.0000E+00
    -29.708  0.0000E+00  0.0000E+00  0.0000E+00  0.0000E+00
    -29.609  0.0000E+00  0.0000E+00  0.0000E+00  0.0000E+00
    -29.509  0.0000E+00  0.0000E+00  0.0000E+00  0.0000E+00
    -29.409  0.0000E+00  0.0000E+00  0.0000E+00  0.0000E+00
    -29.309  0.0000E+00  0.0000E+00  0.0000E+00  0.0000E+00
    -29.209  0.0000E+00  0.0000E+00  0.0000E+00  0.0000E+00
    -29.109  0.3447E-14  0.3391E-14  0.3442E-15  0.3386E-15
    -29.009  0.7123E-12  0.7095E-12  0.7148E-13  0.7119E-13
    -28.910  0.9086E-10  0.9053E-10  0.9144E-11  0.9111E-11
    -28.810  0.7102E-08  0.7079E-08  0.7183E-09  0.7160E-09
    -28.710  0.3406E-06  0.3396E-06  0.3473E-07  0.3463E-07
    -28.610  0.1004E-04  0.1001E-04  0.1037E-05  0.1034E-05
    -28.510  0.1820E-03  0.1816E-03  0.1921E-04  0.1917E-04
    -28.410  0.2034E-02  0.2031E-02  0.2224E-03  0.2220E-03
    -28.310  0.1404E-01  0.1402E-01  0.1624E-02  0.1622E-02
    -28.211  0.5986E-01  0.5981E-01  0.7602E-02  0.7594E-02
    -28.111  0.1580E+00  0.1579E+00  0.2338E-01  0.2337E-01
    -28.011  0.2585E+00  0.2584E+00  0.4919E-01  0.4917E-01
    -27.911  0.2620E+00  0.2621E+00  0.7536E-01  0.7534E-01
    -27.811  0.1647E+00  0.1648E+00  0.9180E-01  0.9180E-01
    -27.711  0.6410E-01  0.6416E-01  0.9821E-01  0.9820E-01
    -27.611  0.1545E-01  0.1547E-01  0.9975E-01  0.9975E-01
    -27.512  0.2302E-02  0.2305E-02  0.9998E-01  0.9998E-01
    -27.412  0.2117E-03  0.2121E-03  0.1000E+00  0.1000E+00
    -27.312  0.1200E-04  0.1203E-04  0.1000E+00  0.1000E+00
    -27.212  0.4187E-06  0.4199E-06  0.1000E+00  0.1000E+00
    -27.112  0.8978E-08  0.9007E-08  0.1000E+00  0.1000E+00
    -27.012  0.1181E-09  0.1185E-09  0.1000E+00  0.1000E+00
    -26.912  0.9524E-12  0.9563E-12  0.1000E+00  0.1000E+00
    -26.813  0.4670E-14  0.4670E-14  0.1000E+00  0.1000E+00
    -26.713  0.0000E+00  0.0000E+00  0.1000E+00  0.1000E+00
    -26.613  0.0000E+00  0.0000E+00  0.1000E+00  0.1000E+00
    -26.513  0.0000E+00  0.0000E+00  0.1000E+00  0.1000E+00
    -26.413  0.0000E+00  0.0000E+00  0.1000E+00  0.1000E+00
    -26.313  0.0000E+00  0.0000E+00  0.1000E+00  0.1000E+00
    -26.213  0.0000E+00  0.0000E+00  0.1000E+00  0.1000E+00
    -26.114  0.0000E+00  0.0000E+00  0.1000E+00  0.1000E+00
    -26.014  0.0000E+00  0.0000E+00  0.1000E+00  0.1000E+00
    -25.914  0.0000E+00  0.0000E+00  0.1000E+00  0.1000E+00
    -25.814  0.0000E+00  0.0000E+00  0.1000E+00  0.1000E+00
    -25.714  0.0000E+00  0.0000E+00  0.1000E+00  0.1000E+00
    -25.614  0.0000E+00  0.0000E+00  0.1000E+00  0.1000E+00
    -25.514  0.0000E+00  0.0000E+00  0.1000E+00  0.1000E+00
    -25.415  0.0000E+00  0.0000E+00  0.1000E+00  0.1000E+00
    -25.315  0.0000E+00  0.0000E+00  0.1000E+00  0.1000E+00
    -25.215  0.0000E+00  0.0000E+00  0.1000E+00  0.1000E+00
    -25.115  0.0000E+00  0.0000E+00  0.1000E+00  0.1000E+00
    -25.015  0.0000E+00  0.0000E+00  0.1000E+00  0.1000E+00
    -24.915  0.0000E+00  0.0000E+00  0.1000E+00  0.1000E+00
    -24.815  0.0000E+00  0.0000E+00  0.1000E+00  0.1000E+00
    -24.716  0.0000E+00  0.0000E+00  0.1000E+00  0.1000E+00
    -24.616  0.0000E+00  0.0000E+00  0.1000E+00  0.1000E+00
    -24.516  0.0000E+00  0.0000E+00  0.1000E+00  0.1000E+00
    -24.416  0.0000E+00  0.0000E+00  0.1000E+00  0.1000E+00
    -24.316  0.0000E+00  0.0000E+00  0.1000E+00  0.1000E+00
    -24.216  0.0000E+00  0.0000E+00  0.1000E+00  0.1000E+00
    -24.116  0.0000E+00  0.0000E+00  0.1000E+00  0.1000E+00
    -24.017  0.0000E+00  0.0000E+00  0.1000E+00  0.1000E+00
    -23.917  0.0000E+00  0.0000E+00  0.1000E+00  0.1000E+00
    -23.817  0.0000E+00  0.0000E+00  0.1000E+00  0.1000E+00
    -23.717  0.0000E+00  0.0000E+00  0.1000E+00  0.1000E+00
    -23.617  0.0000E+00  0.0000E+00  0.1000E+00  0.1000E+00
    -23.517  0.0000E+00  0.0000E+00  0.1000E+00  0.1000E+00
    -23.417  0.0000E+00  0.0000E+00  0.1000E+00  0.1000E+00
    -23.318  0.0000E+00  0.0000E+00  0.1000E+00  0.1000E+00
    -23.218  0.0000E+00  0.0000E+00  0.1000E+00  0.1000E+00
    -23.118  0.0000E+00  0.0000E+00  0.1000E+00  0.1000E+00
    -23.018  0.0000E+00  0.0000E+00  0.1000E+00  0.1000E+00
    -22.918  0.0000E+00  0.0000E+00  0.1000E+00  0.1000E+00
    -22.818  0.0000E+00  0.0000E+00  0.1000E+00  0.1000E+00
    -22.718  0.0000E+00  0.0000E+00  0.1000E+00  0.1000E+00
    -22.619  0.0000E+00  0.0000E+00  0.1000E+00  0.1000E+00
    -22.519  0.0000E+00  0.0000E+00  0.1000E+00  0.1000E+00
    -22.419  0.0000E+00  0.0000E+00  0.1000E+00  0.1000E+00
    -22.319  0.0000E+00  0.0000E+00  0.1000E+00  0.1000E+00
    -22.219  0.0000E+00  0.0000E+00  0.1000E+00  0.1000E+00
    -22.119  0.0000E+00  0.0000E+00  0.1000E+00  0.1000E+00
    -22.019  0.0000E+00  0.0000E+00  0.1000E+00  0.1000E+00
    -21.920  0.0000E+00  0.0000E+00  0.1000E+00  0.1000E+00
    -21.820  0.0000E+00  0.0000E+00  0.1000E+00  0.1000E+00
    -21.720  0.0000E+00  0.0000E+00  0.1000E+00  0.1000E+00
    -21.620  0.0000E+00  0.0000E+00  0.1000E+00  0.1000E+00
    -21.520  0.0000E+00  0.0000E+00  0.1000E+00  0.1000E+00
    -21.420  0.0000E+00  0.0000E+00  0.1000E+00  0.1000E+00
    -21.320  0.0000E+00  0.0000E+00  0.1000E+00  0.1000E+00
    -21.221  0.0000E+00  0.0000E+00  0.1000E+00  0.1000E+00
    -21.121  0.0000E+00  0.0000E+00  0.1000E+00  0.1000E+00
    -21.021  0.0000E+00  0.0000E+00  0.1000E+00  0.1000E+00
    -20.921  0.0000E+00  0.0000E+00  0.1000E+00  0.1000E+00
    -20.821  0.0000E+00  0.0000E+00  0.1000E+00  0.1000E+00
    -20.721  0.0000E+00  0.0000E+00  0.1000E+00  0.1000E+00
    -20.621  0.0000E+00  0.0000E+00  0.1000E+00  0.1000E+00
    -20.522  0.0000E+00  0.0000E+00  0.1000E+00  0.1000E+00
    -20.422  0.0000E+00  0.0000E+00  0.1000E+00  0.1000E+00
    -20.322  0.0000E+00  0.0000E+00  0.1000E+00  0.1000E+00
    -20.222  0.0000E+00  0.0000E+00  0.1000E+00  0.1000E+00
    -20.122  0.0000E+00  0.0000E+00  0.1000E+00  0.1000E+00
    -20.022  0.0000E+00  0.0000E+00  0.1000E+00  0.1000E+00
    -19.922  0.0000E+00  0.0000E+00  0.1000E+00  0.1000E+00
    -19.823  0.0000E+00  0.0000E+00  0.1000E+00  0.1000E+00
    -19.723  0.0000E+00  0.0000E+00  0.1000E+00  0.1000E+00
    -19.623  0.0000E+00  0.0000E+00  0.1000E+00  0.1000E+00
    -19.523  0.0000E+00  0.0000E+00  0.1000E+00  0.1000E+00
    -19.423  0.0000E+00  0.0000E+00  0.1000E+00  0.1000E+00
    -19.323  0.0000E+00  0.0000E+00  0.1000E+00  0.1000E+00
    -19.223  0.0000E+00  0.0000E+00  0.1000E+00  0.1000E+00
    -19.124  0.0000E+00  0.0000E+00  0.1000E+00  0.1000E+00
    -19.024  0.0000E+00  0.0000E+00  0.1000E+00  0.1000E+00
    -18.924  0.0000E+00  0.0000E+00  0.1000E+00  0.1000E+00
    -18.824  0.0000E+00  0.0000E+00  0.1000E+00  0.1000E+00
    -18.724  0.0000E+00  0.0000E+00  0.1000E+00  0.1000E+00
    -18.624  0.0000E+00  0.0000E+00  0.1000E+00  0.1000E+00
    -18.524  0.0000E+00  0.0000E+00  0.1000E+00  0.1000E+00
    -18.425  0.0000E+00  0.0000E+00  0.1000E+00  0.1000E+00
    -18.325  0.0000E+00  0.0000E+00  0.1000E+00  0.1000E+00
    -18.225  0.0000E+00  0.0000E+00  0.1000E+00  0.1000E+00
    -18.125  0.0000E+00  0.0000E+00  0.1000E+00  0.1000E+00
    -18.025  0.0000E+00  0.0000E+00  0.1000E+00  0.1000E+00
    -17.925  0.0000E+00  0.0000E+00  0.1000E+00  0.1000E+00
    -17.825  0.0000E+00  0.0000E+00  0.1000E+00  0.1000E+00
    -17.726  0.0000E+00  0.0000E+00  0.1000E+00  0.1000E+00
    -17.626  0.0000E+00  0.0000E+00  0.1000E+00  0.1000E+00
    -17.526  0.0000E+00  0.0000E+00  0.1000E+00  0.1000E+00
    -17.426  0.0000E+00  0.0000E+00  0.1000E+00  0.1000E+00
    -17.326  0.0000E+00  0.0000E+00  0.1000E+00  0.1000E+00
    -17.226  0.0000E+00  0.0000E+00  0.1000E+00  0.1000E+00
    -17.126  0.0000E+00  0.0000E+00  0.1000E+00  0.1000E+00
    -17.027  0.0000E+00  0.0000E+00  0.1000E+00  0.1000E+00
    -16.927  0.0000E+00  0.0000E+00  0.1000E+00  0.1000E+00
    -16.827  0.0000E+00  0.0000E+00  0.1000E+00  0.1000E+00
    -16.727  0.0000E+00  0.0000E+00  0.1000E+00  0.1000E+00
    -16.627  0.0000E+00  0.0000E+00  0.1000E+00  0.1000E+00
    -16.527  0.0000E+00  0.0000E+00  0.1000E+00  0.1000E+00
    -16.427  0.0000E+00  0.0000E+00  0.1000E+00  0.1000E+00
    -16.328  0.0000E+00  0.0000E+00  0.1000E+00  0.1000E+00
    -16.228  0.0000E+00  0.0000E+00  0.1000E+00  0.1000E+00
    -16.128  0.0000E+00  0.0000E+00  0.1000E+00  0.1000E+00
    -16.028  0.0000E+00  0.0000E+00  0.1000E+00  0.1000E+00
    -15.928  0.0000E+00  0.0000E+00  0.1000E+00  0.1000E+00
    -15.828  0.0000E+00  0.0000E+00  0.1000E+00  0.1000E+00
    -15.728  0.0000E+00  0.0000E+00  0.1000E+00  0.1000E+00
    -15.629  0.0000E+00  0.0000E+00  0.1000E+00  0.1000E+00
    -15.529  0.0000E+00  0.0000E+00  0.1000E+00  0.1000E+00
    -15.429  0.0000E+00  0.0000E+00  0.1000E+00  0.1000E+00
    -15.329  0.0000E+00  0.0000E+00  0.1000E+00  0.1000E+00
    -15.229  0.0000E+00  0.0000E+00  0.1000E+00  0.1000E+00
    -15.129  0.0000E+00  0.0000E+00  0.1000E+00  0.1000E+00
    -15.029  0.0000E+00  0.0000E+00  0.1000E+00  0.1000E+00
    -14.930  0.0000E+00  0.0000E+00  0.1000E+00  0.1000E+00
    -14.830  0.0000E+00  0.0000E+00  0.1000E+00  0.1000E+00
    -14.730  0.0000E+00  0.0000E+00  0.1000E+00  0.1000E+00
    -14.630  0.6671E-15  0.6671E-15  0.1000E+00  0.1000E+00
    -14.530  0.1645E-12  0.1640E-12  0.1000E+00  0.1000E+00
    -14.430  0.2411E-10  0.2404E-10  0.1000E+00  0.1000E+00
    -14.330  0.2165E-08  0.2160E-08  0.1000E+00  0.1000E+00
    -14.231  0.1193E-06  0.1190E-06  0.1000E+00  0.1000E+00
    -14.131  0.4036E-05  0.4028E-05  0.1000E+00  0.1000E+00
    -14.031  0.8399E-04  0.8385E-04  0.1000E+00  0.1000E+00
    -13.931  0.1077E-02  0.1075E-02  0.1001E+00  0.1001E+00
    -13.831  0.8518E-02  0.8509E-02  0.1010E+00  0.1010E+00
    -13.731  0.4164E-01  0.4161E-01  0.1051E+00  0.1051E+00
    -13.631  0.1260E+00  0.1259E+00  0.1177E+00  0.1177E+00
    -13.532  0.2360E+00  0.2359E+00  0.1413E+00  0.1413E+00
    -13.432  0.2740E+00  0.2740E+00  0.1686E+00  0.1686E+00
    -13.332  0.1972E+00  0.1973E+00  0.1883E+00  0.1883E+00
    -13.232  0.8797E-01  0.8803E-01  0.1971E+00  0.1971E+00
    -13.132  0.2429E-01  0.2432E-01  0.1995E+00  0.1995E+00
    -13.032  0.4150E-02  0.4155E-02  0.2000E+00  0.2000E+00
    -12.932  0.4377E-03  0.4384E-03  0.2000E+00  0.2000E+00
    -12.833  0.2848E-04  0.2853E-04  0.2000E+00  0.2000E+00
    -12.733  0.1141E-05  0.1143E-05  0.2000E+00  0.2000E+00
    -12.633  0.2808E-07  0.2815E-07  0.2000E+00  0.2000E+00
    -12.533  0.4245E-09  0.4256E-09  0.2000E+00  0.2000E+00
    -12.433  0.3957E-11  0.3969E-11  0.2000E+00  0.2000E+00
    -12.333  0.4420E-11  0.4434E-11  0.2000E+00  0.2000E+00
    -12.233  0.5027E-09  0.5041E-09  0.2000E+00  0.2000E+00
    -12.134  0.3522E-07  0.3531E-07  0.2000E+00  0.2000E+00
    -12.034  0.1515E-05  0.1518E-05  0.2000E+00  0.2000E+00
    -11.934  0.4004E-04  0.4011E-04  0.2000E+00  0.2000E+00
    -11.834  0.6514E-03  0.6525E-03  0.2001E+00  0.2001E+00
    -11.734  0.6535E-02  0.6544E-02  0.2007E+00  0.2007E+00
    -11.634  0.4048E-01  0.4053E-01  0.2048E+00  0.2048E+00
    -11.534  0.1551E+00  0.1552E+00  0.2203E+00  0.2203E+00
    -11.435  0.3678E+00  0.3680E+00  0.2570E+00  0.2570E+00
    -11.335  0.5405E+00  0.5406E+00  0.3110E+00  0.3110E+00
    -11.235  0.4924E+00  0.4923E+00  0.3601E+00  0.3602E+00
    -11.135  0.2780E+00  0.2778E+00  0.3879E+00  0.3879E+00
    -11.035  0.9722E-01  0.9714E-01  0.3976E+00  0.3976E+00
    -10.935  0.2104E-01  0.2102E-01  0.3997E+00  0.3997E+00
    -10.835  0.2815E-02  0.2811E-02  0.4000E+00  0.4000E+00
    -10.736  0.2324E-03  0.2320E-03  0.4000E+00  0.4000E+00
    -10.636  0.1413E-04  0.1411E-04  0.4000E+00  0.4000E+00
    -10.536  0.5255E-04  0.5258E-04  0.4000E+00  0.4000E+00
    -10.436  0.7256E-03  0.7259E-03  0.4001E+00  0.4001E+00
    -10.336  0.6224E-02  0.6227E-02  0.4007E+00  0.4007E+00
    -10.236  0.3299E-01  0.3300E-01  0.4040E+00  0.4040E+00
    -10.136  0.1082E+00  0.1082E+00  0.4148E+00  0.4148E+00
    -10.037  0.2196E+00  0.2196E+00  0.4367E+00  0.4367E+00
     -9.937  0.2763E+00  0.2763E+00  0.4643E+00  0.4643E+00
     -9.837  0.2155E+00  0.2155E+00  0.4858E+00  0.4858E+00
     -9.737  0.1042E+00  0.1042E+00  0.4962E+00  0.4962E+00
     -9.637  0.3119E-01  0.3118E-01  0.4994E+00  0.4994E+00
     -9.537  0.5775E-02  0.5773E-02  0.4999E+00  0.4999E+00
     -9.437  0.6606E-03  0.6603E-03  0.5000E+00  0.5000E+00
     -9.338  0.4662E-04  0.4659E-04  0.5000E+00  0.5000E+00
     -9.238  0.2026E-05  0.2025E-05  0.5000E+00  0.5000E+00
     -9.138  0.5413E-07  0.5409E-07  0.5000E+00  0.5000E+00
     -9.038  0.8882E-09  0.8875E-09  0.5000E+00  0.5000E+00
     -8.938  0.8937E-11  0.8929E-11  0.5000E+00  0.5000E+00
     -8.838  0.5503E-13  0.5492E-13  0.5000E+00  0.5000E+00
     -8.738  0.2224E-15  0.2224E-15  0.5000E+00  0.5000E+00
     -8.639  0.0000E+00  0.0000E+00  0.5000E+00  0.5000E+00
     -8.539  0.0000E+00  0.0000E+00  0.5000E+00  0.5000E+00
     -8.439  0.0000E+00  0.0000E+00  0.5000E+00  0.5000E+00
     -8.339  0.0000E+00  0.0000E+00  0.5000E+00  0.5000E+00
     -8.239  0.0000E+00  0.0000E+00  0.5000E+00  0.5000E+00
     -8.139  0.0000E+00  0.0000E+00  0.5000E+00  0.5000E+00
     -8.039  0.0000E+00  0.0000E+00  0.5000E+00  0.5000E+00
     -7.940  0.0000E+00  0.0000E+00  0.5000E+00  0.5000E+00
     -7.840  0.0000E+00  0.0000E+00  0.5000E+00  0.5000E+00
     -7.740  0.0000E+00  0.0000E+00  0.5000E+00  0.5000E+00
     -7.640  0.0000E+00  0.0000E+00  0.5000E+00  0.5000E+00
     -7.540  0.0000E+00  0.0000E+00  0.5000E+00  0.5000E+00
     -7.440  0.0000E+00  0.0000E+00  0.5000E+00  0.5000E+00
     -7.340  0.0000E+00  0.0000E+00  0.5000E+00  0.5000E+00
     -7.241  0.0000E+00  0.0000E+00  0.5000E+00  0.5000E+00
     -7.141  0.0000E+00  0.0000E+00  0.5000E+00  0.5000E+00
     -7.041  0.0000E+00  0.0000E+00  0.5000E+00  0.5000E+00
     -6.941  0.0000E+00  0.0000E+00  0.5000E+00  0.5000E+00
     -6.841  0.0000E+00  0.0000E+00  0.5000E+00  0.5000E+00
     -6.741  0.0000E+00  0.0000E+00  0.5000E+00  0.5000E+00
     -6.641  0.0000E+00  0.0000E+00  0.5000E+00  0.5000E+00
     -6.542  0.0000E+00  0.0000E+00  0.5000E+00  0.5000E+00
     -6.442  0.0000E+00  0.0000E+00  0.5000E+00  0.5000E+00
     -6.342  0.0000E+00  0.0000E+00  0.5000E+00  0.5000E+00
     -6.242  0.0000E+00  0.0000E+00  0.5000E+00  0.5000E+00
     -6.142  0.0000E+00  0.0000E+00  0.5000E+00  0.5000E+00
     -6.042  0.0000E+00  0.0000E+00  0.5000E+00  0.5000E+00
     -5.942  0.0000E+00  0.0000E+00  0.5000E+00  0.5000E+00
     -5.843  0.0000E+00  0.0000E+00  0.5000E+00  0.5000E+00
     -5.743  0.0000E+00  0.0000E+00  0.5000E+00  0.5000E+00
     -5.643  0.0000E+00  0.0000E+00  0.5000E+00  0.5000E+00
     -5.543  0.0000E+00  0.0000E+00  0.5000E+00  0.5000E+00
     -5.443  0.0000E+00  0.0000E+00  0.5000E+00  0.5000E+00
     -5.343  0.0000E+00  0.0000E+00  0.5000E+00  0.5000E+00
     -5.243  0.0000E+00  0.0000E+00  0.5000E+00  0.5000E+00
     -5.144  0.0000E+00  0.0000E+00  0.5000E+00  0.5000E+00
     -5.044  0.0000E+00  0.0000E+00  0.5000E+00  0.5000E+00
     -4.944  0.0000E+00  0.0000E+00  0.5000E+00  0.5000E+00
     -4.844  0.0000E+00  0.0000E+00  0.5000E+00  0.5000E+00
     -4.744  0.0000E+00  0.0000E+00  0.5000E+00  0.5000E+00
     -4.644  0.0000E+00  0.0000E+00  0.5000E+00  0.5000E+00
     -4.544  0.0000E+00  0.0000E+00  0.5000E+00  0.5000E+00
     -4.445  0.0000E+00  0.0000E+00  0.5000E+00  0.5000E+00
     -4.345  0.0000E+00  0.0000E+00  0.5000E+00  0.5000E+00
     -4.245  0.0000E+00  0.0000E+00  0.5000E+00  0.5000E+00
     -4.145  0.0000E+00  0.0000E+00  0.5000E+00  0.5000E+00
     -4.045  0.0000E+00  0.0000E+00  0.5000E+00  0.5000E+00
     -3.945  0.0000E+00  0.0000E+00  0.5000E+00  0.5000E+00
     -3.845  0.0000E+00  0.0000E+00  0.5000E+00  0.5000E+00
     -3.746  0.0000E+00  0.0000E+00  0.5000E+00  0.5000E+00
     -3.646  0.0000E+00  0.0000E+00  0.5000E+00  0.5000E+00
     -3.546  0.0000E+00  0.0000E+00  0.5000E+00  0.5000E+00
     -3.446  0.0000E+00  0.0000E+00  0.5000E+00  0.5000E+00
     -3.346  0.0000E+00  0.0000E+00  0.5000E+00  0.5000E+00
     -3.246  0.0000E+00  0.0000E+00  0.5000E+00  0.5000E+00
     -3.146  0.9450E-14  0.9450E-14  0.5000E+00  0.5000E+00
     -3.047  0.1905E-11  0.1914E-11  0.5000E+00  0.5000E+00
     -2.947  0.2362E-09  0.2372E-09  0.5000E+00  0.5000E+00
     -2.847  0.1796E-07  0.1802E-07  0.5000E+00  0.5000E+00
     -2.747  0.8375E-06  0.8403E-06  0.5000E+00  0.5000E+00
     -2.647  0.2400E-04  0.2407E-04  0.5000E+00  0.5000E+00
     -2.547  0.4234E-03  0.4244E-03  0.5000E+00  0.5000E+00
     -2.447  0.4603E-02  0.4612E-02  0.5005E+00  0.5005E+00
     -2.348  0.3090E-01  0.3094E-01  0.5036E+00  0.5036E+00
     -2.248  0.1282E+00  0.1283E+00  0.5164E+00  0.5164E+00
     -2.148  0.3293E+00  0.3295E+00  0.5493E+00  0.5493E+00
     -2.048  0.5241E+00  0.5242E+00  0.6016E+00  0.6017E+00
     -1.948  0.5170E+00  0.5168E+00  0.6532E+00  0.6533E+00
     -1.848  0.3161E+00  0.3159E+00  0.6848E+00  0.6848E+00
     -1.748  0.1197E+00  0.1196E+00  0.6968E+00  0.6968E+00
     -1.649  0.2807E-01  0.2803E-01  0.6996E+00  0.6996E+00
     -1.549  0.4069E-02  0.4060E-02  0.7000E+00  0.7000E+00
     -1.449  0.3640E-03  0.3631E-03  0.7000E+00  0.7000E+00
     -1.349  0.2007E-04  0.2002E-04  0.7000E+00  0.7000E+00
     -1.249  0.6812E-06  0.6789E-06  0.7000E+00  0.7000E+00
     -1.149  0.1420E-07  0.1415E-07  0.7000E+00  0.7000E+00
     -1.049  0.1817E-09  0.1809E-09  0.7000E+00  0.7000E+00
     -0.950  0.1425E-11  0.1418E-11  0.7000E+00  0.7000E+00
     -0.850  0.6893E-14  0.6671E-14  0.7000E+00  0.7000E+00
     -0.750  0.0000E+00  0.0000E+00  0.7000E+00  0.7000E+00
     -0.650  0.0000E+00  0.0000E+00  0.7000E+00  0.7000E+00
     -0.550  0.0000E+00  0.0000E+00  0.7000E+00  0.7000E+00
     -0.450  0.0000E+00  0.0000E+00  0.7000E+00  0.7000E+00
     -0.350  0.0000E+00  0.0000E+00  0.7000E+00  0.7000E+00
     -0.251  0.0000E+00  0.0000E+00  0.7000E+00  0.7000E+00
     -0.151  0.0000E+00  0.0000E+00  0.7000E+00  0.7000E+00
     -0.051  0.0000E+00  0.0000E+00  0.7000E+00  0.7000E+00
