    2    2   10    2
  0.5000000E+03  0.1000000E-08  0.1000000E-08  0.1000000E-08  0.5000000E-15
  1.000000000000000E-004
  CAR 
 unknown system                          
   10    1    7
 
  0.0000000E+00  0.0000000E+00  0.0000000E+00  0.1000000E+01
   1      -28.008014    -28.007935
   2      -13.500361    -13.500301
   3      -11.354187    -11.354251
   4      -11.354187    -11.354251
   5       -9.988582     -9.988601
   6       -2.050831     -2.050924
   7       -2.050831     -2.050924
