 running on    1 nodes
 distr:  one band on    1 nodes,    1 groups
 vasp.5.2.12 11Nov11 complex                                                    
  
 POSCAR found :  1 types and       2 ions
 LDA part: xc-table for Pade appr. of Perdew
 POSCAR, INCAR and KPOINTS ok, starting setup
 WARNING: small aliasing (wrap around) errors must be expected
 FFT: planning ...(           1 )
 WAVECAR not read
 entering main loop
       N       E                     dE             d eps       ncg     rms          rms(c)
DAV:   1     0.676379730424E+02    0.67638E+02   -0.22280E+03    42   0.545E+02
DAV:   2    -0.824260977540E+01   -0.75881E+02   -0.75790E+02    49   0.174E+02
DAV:   3    -0.163519637709E+02   -0.81094E+01   -0.81094E+01    28   0.771E+01
DAV:   4    -0.164548381376E+02   -0.10287E+00   -0.10287E+00    49   0.102E+01
DAV:   5    -0.164550815252E+02   -0.24339E-03   -0.24339E-03    49   0.373E-01    0.949E+00
DAV:   6    -0.114908791607E+02    0.49642E+01   -0.61661E+00    35   0.204E+01    0.367E+00
DAV:   7    -0.149279013628E+02   -0.34370E+01   -0.29241E+00    35   0.113E+01    0.169E+00
DAV:   8    -0.161478947662E+02   -0.12200E+01   -0.49236E-01    35   0.460E+00    0.750E-01
DAV:   9    -0.164424621621E+02   -0.29457E+00   -0.22394E-02    35   0.149E+00    0.322E-01
DAV:  10    -0.165114762956E+02   -0.69014E-01   -0.11127E-02    42   0.851E-01    0.560E-02
DAV:  11    -0.165155815714E+02   -0.41053E-02   -0.22722E-04    42   0.193E-01    0.296E-02
DAV:  12    -0.165178979967E+02   -0.23164E-02   -0.18933E-04    35   0.125E-01    0.165E-02
DAV:  13    -0.165188056151E+02   -0.90762E-03   -0.28335E-04    42   0.121E-01    0.108E-02
DAV:  14    -0.165197034544E+02   -0.89784E-03   -0.69407E-05    28   0.692E-02    0.816E-03
DAV:  15    -0.165202092155E+02   -0.50576E-03   -0.12334E-04    42   0.686E-02    0.397E-03
DAV:  16    -0.165204145907E+02   -0.20538E-03   -0.62547E-06    21   0.250E-02    0.274E-03
DAV:  17    -0.165205897486E+02   -0.17516E-03   -0.18860E-05    28   0.283E-02    0.169E-03
DAV:  18    -0.165206666755E+02   -0.76927E-04   -0.16092E-06    14   0.110E-02
   1 F= -.16520667E+02 E0= -.16520667E+02  d E =-.165207E+02  mag=     0.0003
 curvature:   0.00 expect dE= 0.000E+00 dE for cont linesearch  0.000E+00
 trial: gam= 0.00000 g(F)=  0.157E+00 g(S)=  0.000E+00 ort = 0.000E+00 (trialstep = 0.100E+01)
 search vector abs. value=  0.157E+00
 bond charge predicted
       N       E                     dE             d eps       ncg     rms          rms(c)
DAV:   1    -0.153942047273E+02    0.11264E+01   -0.41633E+01    28   0.839E+01    0.237E+00
DAV:   2    -0.152830863747E+02    0.11112E+00   -0.53196E-01    28   0.864E+00    0.139E+00
DAV:   3    -0.152477766115E+02    0.35310E-01   -0.35922E-01    42   0.638E+00    0.397E-01
DAV:   4    -0.152435255593E+02    0.42511E-02   -0.35018E-02    42   0.197E+00    0.191E-01
DAV:   5    -0.152445192213E+02   -0.99366E-03   -0.17499E-03    42   0.555E-01    0.153E-02
DAV:   6    -0.152446044650E+02   -0.85244E-04   -0.50776E-05    56   0.879E-02
   2 F= -.15244604E+02 E0= -.15244604E+02  d E =0.127606E+01  mag=     0.0000
 trial-energy change:    1.276062  1 .order    1.507843   -0.156761    3.172446
 step:   0.0767(harm=  0.0471)  dis= 0.00471  next Energy=   -16.526779 (dE=-0.611E-02)
 bond charge predicted
       N       E                     dE             d eps       ncg     rms          rms(c)
DAV:   1    -0.166746732511E+02   -0.14302E+01   -0.35470E+01    28   0.773E+01    0.239E+00
DAV:   2    -0.165479046236E+02    0.12677E+00   -0.43713E-01    42   0.782E+00    0.115E+00
DAV:   3    -0.165242220746E+02    0.23683E-01   -0.17520E-01    42   0.433E+00    0.235E-01
DAV:   4    -0.165251178932E+02   -0.89582E-03   -0.49048E-03    28   0.790E-01    0.129E-01
DAV:   5    -0.165262971666E+02   -0.11793E-02   -0.47655E-04    42   0.295E-01    0.136E-02
DAV:   6    -0.165263291420E+02   -0.31975E-04   -0.22039E-05    14   0.639E-02
   3 F= -.16526329E+02 E0= -.16526329E+02  d E =-.566247E-02  mag=     0.0000
 curvature:  -0.02 expect dE=-0.823E-05 dE for cont linesearch -0.823E-05
 trial: gam= 0.00000 g(F)=  0.350E-03 g(S)=  0.000E+00 ort =-0.741E-02 (trialstep = 0.815E+00)
 search vector abs. value=  0.350E-03
 reached required accuracy - stopping structural energy minimisation
 writing wavefunctions
NPROCS =  1
