 vasp.5.2.12 11Nov11 complex                                                    
  
 executed on             LinuxIFC date 2012.10.31  12:22:06
 running on    1 nodes
 distr:  one band on    1 nodes,    1 groups


--------------------------------------------------------------------------------------------------------


 INCAR:
 POTCAR:   PAW_PBE N 08Apr2002                    
 POTCAR:   PAW_PBE N 08Apr2002                    
   VRHFIN =N: s2p3                                                              
   LEXCH  = PE                                                                  
   EATOM  =   264.5486 eV,   19.4438 Ry                                         
                                                                                
   TITEL  = PAW_PBE N 08Apr2002                                                 
   LULTRA =        F    use ultrasoft PP ?                                      
   IUNSCR =        0    unscreen: 0-lin 1-nonlin 2-no                           
   RPACOR =     .000    partial core radius                                     
   POMASS =   14.001; ZVAL   =    5.000    mass and valenz                      
   RCORE  =    1.500    outmost cutoff radius                                   
   RWIGS  =    1.400; RWIGS  =     .741    wigner-seitz radius (au A)           
   ENMAX  =  400.000; ENMIN  =  300.000 eV                                      
   ICORE  =        2    local potential                                         
   LCOR   =        T    correct aug charges                                     
   LPAW   =        T    paw PP                                                  
   EAUG   =  627.112                                                            
   DEXC   =     .000                                                            
   RMAX   =    2.247    core radius for proj-oper                               
   RAUG   =    1.300    factor for augmentation sphere                          
   RDEP   =    1.514    radius for radial grids                                 
   QCUT   =   -5.562; QGAM   =   11.124    optimization parameters              
                                                                                
   Description                                                                  
     l     E      TYP  RCUT    TYP  RCUT                                        
     0   .000     23  1.200                                                     
     0   .000     23  1.200                                                     
     1   .000     23  1.500                                                     
     1   .700     23  1.500                                                     
     2   .000      7  1.500                                                     
  local pseudopotential read in
  atomic valenz-charges read in
  non local Contribution for L=           0  read in
    real space projection operators read in
  non local Contribution for L=           0  read in
    real space projection operators read in
  non local Contribution for L=           1  read in
    real space projection operators read in
  non local Contribution for L=           1  read in
    real space projection operators read in
    PAW grid and wavefunctions read in
 
   number of l-projection  operators is LMAX  =           4
   number of lm-projection operators is LMMAX =           8
 
 PAW_PBE N 08Apr2002                    :
 energy of atom  1       EATOM= -264.5486
 kinetic energy error for atom=    0.2274 (will be added to EATOM!!)
 
 
 POSCAR:  N                                      
  positions in cartesian coordinates
  No initial velocities read in
 exchange correlation table for  LEXCH =        8
   RHO(1)=    0.500       N(1)  =     2000
   RHO(2)=  100.500       N(2)  =     4000
 


--------------------------------------------------------------------------------------------------------


 ion  position               nearest neighbor table
   1  0.500  0.500  0.556-   2 1.13
   2  0.500  0.500  0.444-   1 1.13
 
  LATTYP: Found a simple cubic cell.
 ALAT       =    10.0000000000
  
  Lattice vectors:
  
 A1 = (  10.0000000000,   0.0000000000,   0.0000000000)
 A2 = (   0.0000000000,  10.0000000000,   0.0000000000)
 A3 = (   0.0000000000,   0.0000000000,  10.0000000000)
 Subroutine PRICEL returns:
 Original cell was already a primitive cell.
 

Analysis of symmetry for initial positions (statically):

 Routine SETGRP: Setting up the symmetry group for a 
 simple cubic supercell.


 Subroutine GETGRP returns: Found 16 space group operations
 (whereof 16 operations were pure point group operations)
 out of a pool of 48 trial point group operations.


The static configuration has the point symmetry D_4h.

Analysis of symmetry for dynamics (positions and initial velocities):

 Subroutine DYNSYM returns: Found 16 space group operations
 (whereof 16 operations were pure point group operations)
 out of a pool of 16 trial space group operations
 (whereof 16 operations were pure point group operations)
 and found also     1 'primitive' translations


The dynamic configuration has the point symmetry D_4h.

Analysis of magnetic symmetry:

 Subroutine MAGSYM returns: Found 16 space group operations
 (whereof 16 operations were pure point group operations)
 out of a pool of 16 trial space group operations
 (whereof 16 operations were pure point group operations)
 and found also     1 'primitive' translations


The magnetic configuration has the point symmetry D_4h.
 
 
 KPOINTS: KPOINTS created by Atomic Simulation Env

Automatic generation of k-mesh.
 
 Subroutine IBZKPT returns following result:
 ===========================================
 
 Found      1 irreducible k-points:
 
 Following reciprocal coordinates:
            Coordinates               Weight
  0.000000  0.000000  0.000000      1.000000
 
 Following cartesian coordinates:
            Coordinates               Weight
  0.000000  0.000000  0.000000      1.000000
 


--------------------------------------------------------------------------------------------------------




 Dimension of arrays:
   k-points           NKPTS =      1   k-points in BZ     NKDIM =      1   number of bands    NBANDS=      7
   number of dos      NEDOS =    301   number of ions     NIONS =      2
   non local maximal  LDIM  =      4   non local SUM 2l+1 LMDIM =      8
   total plane-waves  NPLWV = 110592
   max r-space proj   IRMAX =      1   max aug-charges    IRDMAX=   1560
   dimension x,y,z NGX =    48 NGY =   48 NGZ =   48
   dimension x,y,z NGXF=    96 NGYF=   96 NGZF=   96
   support grid    NGXF=    96 NGYF=   96 NGZF=   96
   ions per type =               2
 NGX,Y,Z   is equivalent  to a cutoff of   7.98,  7.98,  7.98 a.u.
 NGXF,Y,Z  is equivalent  to a cutoff of  15.96, 15.96, 15.96 a.u.


 I would recommend the setting:
   dimension x,y,z NGX =    46 NGY =   46 NGZ =   46
 SYSTEM =  unknown system                          
 POSCAR =   N                                      

 Startparameter for this run:
   NWRITE =      2    write-flag & timer
   PREC   = normal    normal or accurate (medium, high low for compatibility)
   ISTART =      0    job   : 0-new  1-cont  2-samecut
   ICHARG =      2    charge: 1-file 2-atom 10-const
   ISPIN  =      2    spin polarized calculation?
   LNONCOLLINEAR =      F non collinear calculations
   LSORBIT =      F    spin-orbit coupling
   INIWAV =      1    electr: 0-lowe 1-rand  2-diag
   LASPH  =      F    aspherical Exc in radial PAW
   METAGGA=      F    non-selfconsistent MetaGGA calc.

 Electronic Relaxation 1
   ENCUT  =  350.0 eV  25.72 Ry    5.07 a.u.  15.25 15.25 15.25*2*pi/ulx,y,z
   ENINI  =  350.0     initial cutoff
   ENAUG  =  627.1 eV  augmentation charge cutoff
   NELM   =     60;   NELMIN=  2; NELMDL= -5     # of ELM steps 
   EDIFF  = 0.1E-03   stopping-criterion for ELM
   LREAL  =      F    real-space projection
   NLSPLINE    = F    spline interpolate recip. space projectors
   LCOMPAT=      F    compatible to vasp.4.4
   GGA_COMPAT  = T    GGA compatible to vasp.4.4-vasp.4.6
   LMAXPAW     = -100 max onsite density
   LMAXMIX     =    2 max onsite mixed and CHGCAR
   VOSKOWN=      0    Vosko Wilk Nusair interpolation
   ROPT   =    0.00000
 Ionic relaxation
   EDIFFG = 0.1E-02   stopping-criterion for IOM
   NSW    =     10    number of steps for IOM
   NBLOCK =      1;   KBLOCK =     10    inner block; outer block 
   IBRION =      2    ionic relax: 0-MD 1-quasi-New 2-CG
   NFREE  =      1    steps in history (QN), initial steepest desc. (CG)
   ISIF   =      2    stress and relaxation
   IWAVPR =     11    prediction:  0-non 1-charg 2-wave 3-comb
   ISYM   =      2    0-nonsym 1-usesym 2-fastsym
   LCORR  =      T    Harris-Foulkes like correction to forces

   POTIM  = 0.5000    time-step for ionic-motion
   TEIN   =    0.0    initial temperature
   TEBEG  =    0.0;   TEEND  =   0.0 temperature during run
   SMASS  =  -3.00    Nose mass-parameter (am)
   estimated Nose-frequenzy (Omega)   =  0.10E-29 period in steps =****** mass=  -0.229E-26a.u.
   SCALEE = 1.0000    scale energy and forces
   NPACO  =    256;   APACO  = 16.0  distance and # of slots for P.C.
   PSTRESS=    0.0 pullay stress

  Mass of Ions in am
   POMASS =  14.00
  Ionic Valenz
   ZVAL   =   5.00
  Atomic Wigner-Seitz radii
   RWIGS  =  -1.00
  virtual crystal weights 
   VCA    =   1.00
   NELECT =      10.0000    total number of electrons
   NUPDOWN=      -1.0000    fix difference up-down

 DOS related values:
   EMIN   =  10.00;   EMAX   =-10.00  energy-range for DOS
   EFERMI =   0.00
   ISMEAR =     0;   SIGMA  =   0.20  broadening in eV -4-tet -1-fermi 0-gaus

 Electronic relaxation 2 (details)
   IALGO  =     38    algorithm
   LDIAG  =      T    sub-space diagonalisation (order eigenvalues)
   LSUBROT=      T    optimize rotation matrix (better conditioning)
   TURBO    =      0    0=normal 1=particle mesh
   IRESTART =      0    0=no restart 2=restart with 2 vectors
   NREBOOT  =      0    no. of reboots
   NMIN     =      0    reboot dimension
   EREF     =   0.00    reference energy to select bands
   IMIX   =      4    mixing-type and parameters
     AMIX     =   0.40;   BMIX     =  1.00
     AMIX_MAG =   1.60;   BMIX_MAG =  1.00
     AMIN     =   0.10
     WC   =   100.;   INIMIX=   1;  MIXPRE=   1

 Intra band minimization:
   WEIMIN = 0.0010     energy-eigenvalue tresh-hold
   EBREAK =  0.36E-05  absolut break condition
   DEPER  =   0.30     relativ break condition  

   TIME   =   0.40     timestep for ELM

  volume/ion in A,a.u.               =     500.00      3374.17
  Fermi-wavevector in a.u.,A,eV,Ry     =   0.352702  0.666511  1.692549  0.124399
  Thomas-Fermi vector in A             =   1.266362
 
 Write flags
   LWAVE  =      T    write WAVECAR
   LCHARG =      T    write CHGCAR
   LVTOT  =      F    write LOCPOT, total local potential
   LVHAR  =      F    write LOCPOT, Hartree potential only
   LELF   =      F    write electronic localiz. function (ELF)
   LORBIT =      0    0 simple, 1 ext, 2 COOP (PROOUT)


 Dipole corrections
   LMONO  =      F    monopole corrections only (constant potential shift)
   LDIPOL =      F    correct potential (dipole corrections)
   IDIPOL =      0    1-x, 2-y, 3-z, 4-all directions 
   EPSILON=  1.0000000 bulk dielectric constant

 Exchange correlation treatment:
   GGA     =    --    GGA type
   LEXCH   =     8    internal setting for exchange type
   VOSKOWN=      0    Vosko Wilk Nusair interpolation
   LHFCALC =     F    Hartree Fock is set to
   LHFONE  =     F    Hartree Fock one center treatment
   AEXX    =    0.0000 exact exchange contribution

 Linear response parameters
   LEPSILON=     F    determine dielectric tensor
   LRPA    =     F    only Hartree local field effects (RPA)
   LNABLA  =     F    use nabla operator in PAW spheres
   LVEL    =     F    velocity operator in full k-point grid
   LINTERFAST=   F  fast interpolation
   KINTER  =     0    interpolate to denser k-point grid
   CSHIFT  =0.1000    complex shift for real part using Kramers Kronig
   OMEGAMAX=  -1.0    maximum frequency
   RTIME   =    0.100 relaxation time in fs

 Orbital magnetization related:
   ORBITALMAG=     F  switch on orbital magnetization
   LCHIMAG   =     F  perturbation theory with respect to B field
   DQ        =  0.001000  dq finite difference perturbation B field



--------------------------------------------------------------------------------------------------------


 conjugate gradient relaxation of ions
 charge density and potential will be updated during run
 spin polarized calculation
 Variant of blocked Davidson
 Davidson routine will perform the subspace rotation
 perform sub-space diagonalisation
    after iterative eigenvector-optimisation
 modified Broyden-mixing scheme, WC =      100.0
 initial mixing is a Kerker type mixing with AMIX =  0.4000 and BMIX =      1.0000
 Hartree-type preconditioning will be used
 using additional bands            2
 reciprocal scheme for non local part
 calculate Harris-corrections to forces 
   (improved forces if not selfconsistent)
 use gradient corrections 
 use of overlap-Matrix (Vanderbilt PP)
 Gauss-broadening in eV      SIGMA  =   0.20


--------------------------------------------------------------------------------------------------------


  energy-cutoff  :      350.00
  volume of cell :     1000.00
      direct lattice vectors                 reciprocal lattice vectors
    10.000000000  0.000000000  0.000000000     0.100000000  0.000000000  0.000000000
     0.000000000 10.000000000  0.000000000     0.000000000  0.100000000  0.000000000
     0.000000000  0.000000000 10.000000000     0.000000000  0.000000000  0.100000000

  length of vectors
    10.000000000 10.000000000 10.000000000     0.100000000  0.100000000  0.100000000


 
 k-points in units of 2pi/SCALE and weight: KPOINTS created by Atomic Simulation Env
   0.00000000  0.00000000  0.00000000       1.000
 
 k-points in reciprocal lattice and weights: KPOINTS created by Atomic Simulation Env
   0.00000000  0.00000000  0.00000000       1.000
 
 position of ions in fractional coordinates (direct lattice) 
   0.50000000  0.50000000  0.55649900
   0.50000000  0.50000000  0.44350100
 
 position of ions in cartesian coordinates  (Angst):
   5.00000000  5.00000000  5.56499000
   5.00000000  5.00000000  4.43501000
 


--------------------------------------------------------------------------------------------------------


 k-point  1 :  0.00000.00000.0000  plane waves:   14795

 maximum and minimum number of plane-waves per node :     14795    14795

 maximum number of plane-waves:     14795
 maximum index in each direction: 
   IXMAX=   15   IYMAX=   15   IZMAX=   15
   IXMIN=  -15   IYMIN=  -15   IZMIN=  -15

 WARNING: aliasing errors must be expected set NGX to  62 to avoid them
 WARNING: aliasing errors must be expected set NGY to  62 to avoid them
 WARNING: aliasing errors must be expected set NGZ to  62 to avoid them
 aliasing errors are usually negligible using standard VASP settings
 and one can safely disregard these warnings

 serial   3D FFT for wavefunctions
 parallel 3D FFT for charge:
    minimum data exchange during FFTs selected (reduces bandwidth)


 total amount of memory used by VASP on root node   139139. kBytes
========================================================================

   base      :      30000. kBytes
   nonl-proj :       1420. kBytes
   fftplans  :      30736. kBytes
   grid      :      73654. kBytes
   one-center:         12. kBytes
   wavefun   :       3317. kBytes
 
 Broyden mixing: mesh for mixing (old mesh)
   NGX = 31   NGY = 31   NGZ = 31
  (NGX  = 96   NGY  = 96   NGZ  = 96)
  gives a total of  29791 points

 initial charge density was supplied:
 charge density of overlapping atoms calculated
 number of electron      10.0000000 magnetization       2.0000000
 keeping initial charge density in first step


--------------------------------------------------------------------------------------------------------


 Maximum index for augmentation-charges         1318 (set IRDMAX)


--------------------------------------------------------------------------------------------------------


 First call to EWALD:  gamma=   0.177
 Maximum number of real-space cells 3x 3x 3
 Maximum number of reciprocal cells 3x 3x 3

    FEWALD:  cpu time    0.00: real time    0.00


----------------------------------------- Iteration    1(   1)  ---------------------------------------


    POTLOK:  cpu time    3.12: real time    3.12
    SETDIJ:  cpu time    0.03: real time    0.03
     EDDAV:  cpu time    1.29: real time    1.29
       DOS:  cpu time    0.00: real time    0.00
    --------------------------------------------
      LOOP:  cpu time    4.43: real time    4.44

 eigenvalue-minimisations  :    42
 total energy-change (2. order) : 0.6763797E+02  (-0.2228019E+03)
 number of electron      10.0000000 magnetization       2.0000000
 augmentation part       10.0000000 magnetization       2.0000000

 Free energy of the ion-electron system (eV)
  ---------------------------------------------------
  alpha Z        PSCENC =         0.43050678
  Ewald energy   TEWEN  =       115.28359984
  -1/2 Hartree   DENC   =      -530.57216309
  -exchange  EXHF       =         0.00000000
  -V(xc)+E(xc)   XCENC  =        38.58625414
  PAW double counting   =       223.86051543     -226.60717556
  entropy T*S    EENTRO =        -0.00776324
  eigenvalues    EBANDS =       -81.97829123
  atomic energy  EATOM  =       528.64248996
  ---------------------------------------------------
  free energy    TOTEN  =        67.63797304 eV

  energy without entropy =       67.64573628  energy(sigma->0) =       67.64185466


--------------------------------------------------------------------------------------------------------




----------------------------------------- Iteration    1(   2)  ---------------------------------------


     EDDAV:  cpu time    1.46: real time    1.46
       DOS:  cpu time    0.00: real time    0.00
    --------------------------------------------
      LOOP:  cpu time    1.46: real time    1.46

 eigenvalue-minimisations  :    49
 total energy-change (2. order) :-0.7588058E+02  (-0.7578973E+02)
 number of electron      10.0000000 magnetization       2.0000000
 augmentation part       10.0000000 magnetization       2.0000000

 Free energy of the ion-electron system (eV)
  ---------------------------------------------------
  alpha Z        PSCENC =         0.43050678
  Ewald energy   TEWEN  =       115.28359984
  -1/2 Hartree   DENC   =      -530.57216309
  -exchange  EXHF       =         0.00000000
  -V(xc)+E(xc)   XCENC  =        38.58625414
  PAW double counting   =       223.86051543     -226.60717556
  entropy T*S    EENTRO =         0.00000000
  eigenvalues    EBANDS =      -157.86663729
  atomic energy  EATOM  =       528.64248996
  ---------------------------------------------------
  free energy    TOTEN  =        -8.24260978 eV

  energy without entropy =       -8.24260978  energy(sigma->0) =       -8.24260978


--------------------------------------------------------------------------------------------------------




----------------------------------------- Iteration    1(   3)  ---------------------------------------


     EDDAV:  cpu time    0.93: real time    0.93
       DOS:  cpu time    0.00: real time    0.00
    --------------------------------------------
      LOOP:  cpu time    0.93: real time    0.95

 eigenvalue-minimisations  :    28
 total energy-change (2. order) :-0.8109354E+01  (-0.8109354E+01)
 number of electron      10.0000000 magnetization       2.0000000
 augmentation part       10.0000000 magnetization       2.0000000

 Free energy of the ion-electron system (eV)
  ---------------------------------------------------
  alpha Z        PSCENC =         0.43050678
  Ewald energy   TEWEN  =       115.28359984
  -1/2 Hartree   DENC   =      -530.57216309
  -exchange  EXHF       =         0.00000000
  -V(xc)+E(xc)   XCENC  =        38.58625414
  PAW double counting   =       223.86051543     -226.60717556
  entropy T*S    EENTRO =         0.00000000
  eigenvalues    EBANDS =      -165.97599128
  atomic energy  EATOM  =       528.64248996
  ---------------------------------------------------
  free energy    TOTEN  =       -16.35196377 eV

  energy without entropy =      -16.35196377  energy(sigma->0) =      -16.35196377


--------------------------------------------------------------------------------------------------------




----------------------------------------- Iteration    1(   4)  ---------------------------------------


     EDDAV:  cpu time    1.45: real time    1.45
       DOS:  cpu time    0.00: real time    0.00
    --------------------------------------------
      LOOP:  cpu time    1.46: real time    1.47

 eigenvalue-minimisations  :    49
 total energy-change (2. order) :-0.1028744E+00  (-0.1028744E+00)
 number of electron      10.0000000 magnetization       2.0000000
 augmentation part       10.0000000 magnetization       2.0000000

 Free energy of the ion-electron system (eV)
  ---------------------------------------------------
  alpha Z        PSCENC =         0.43050678
  Ewald energy   TEWEN  =       115.28359984
  -1/2 Hartree   DENC   =      -530.57216309
  -exchange  EXHF       =         0.00000000
  -V(xc)+E(xc)   XCENC  =        38.58625414
  PAW double counting   =       223.86051543     -226.60717556
  entropy T*S    EENTRO =         0.00000000
  eigenvalues    EBANDS =      -166.07886565
  atomic energy  EATOM  =       528.64248996
  ---------------------------------------------------
  free energy    TOTEN  =       -16.45483814 eV

  energy without entropy =      -16.45483814  energy(sigma->0) =      -16.45483814


--------------------------------------------------------------------------------------------------------




----------------------------------------- Iteration    1(   5)  ---------------------------------------


     EDDAV:  cpu time    1.45: real time    1.45
       DOS:  cpu time    0.00: real time    0.00
    CHARGE:  cpu time    0.35: real time    0.35
    MIXING:  cpu time    0.06: real time    0.06
    --------------------------------------------
      LOOP:  cpu time    1.86: real time    1.94

 eigenvalue-minimisations  :    49
 total energy-change (2. order) :-0.2433876E-03  (-0.2433876E-03)
 number of electron      10.0000035 magnetization       1.0942618
 augmentation part        0.3814945 magnetization       1.0994790

 Broyden mixing:
  rms(total) = 0.94867E+00    rms(broyden)= 0.94725E+00
  rms(prec ) = 0.10146E+01
  weight for this iteration     100.00

 Free energy of the ion-electron system (eV)
  ---------------------------------------------------
  alpha Z        PSCENC =         0.43050678
  Ewald energy   TEWEN  =       115.28359984
  -1/2 Hartree   DENC   =      -530.57216309
  -exchange  EXHF       =         0.00000000
  -V(xc)+E(xc)   XCENC  =        38.58625414
  PAW double counting   =       223.86051543     -226.60717556
  entropy T*S    EENTRO =         0.00000000
  eigenvalues    EBANDS =      -166.07910904
  atomic energy  EATOM  =       528.64248996
  ---------------------------------------------------
  free energy    TOTEN  =       -16.45508153 eV

  energy without entropy =      -16.45508153  energy(sigma->0) =      -16.45508153


--------------------------------------------------------------------------------------------------------




----------------------------------------- Iteration    1(   6)  ---------------------------------------


    POTLOK:  cpu time    3.27: real time    3.27
    SETDIJ:  cpu time    0.03: real time    0.03
     EDDAV:  cpu time    1.11: real time    1.11
       DOS:  cpu time    0.00: real time    0.00
    CHARGE:  cpu time    0.34: real time    0.34
    MIXING:  cpu time    0.07: real time    0.07
    --------------------------------------------
      LOOP:  cpu time    4.81: real time    4.83

 eigenvalue-minimisations  :    35
 total energy-change (2. order) : 0.4964202E+01  (-0.6166082E+00)
 number of electron      10.0000035 magnetization       0.5736481
 augmentation part        0.3751279 magnetization       0.5575932

 Broyden mixing:
  rms(total) = 0.36673E+00    rms(broyden)= 0.36651E+00
  rms(prec ) = 0.42641E+00
  weight for this iteration     100.00

 eigenvalues of (default mixing * dielectric matrix)
  average eigenvalue GAMMA=   0.9087
  0.9087

 Free energy of the ion-electron system (eV)
  ---------------------------------------------------
  alpha Z        PSCENC =         0.43050678
  Ewald energy   TEWEN  =       115.28359984
  -1/2 Hartree   DENC   =      -540.63126057
  -exchange  EXHF       =         0.00000000
  -V(xc)+E(xc)   XCENC  =        43.07350856
  PAW double counting   =       260.15732576     -263.07634589
  entropy T*S    EENTRO =         0.00000000
  eigenvalues    EBANDS =      -155.37070360
  atomic energy  EATOM  =       528.64248996
  ---------------------------------------------------
  free energy    TOTEN  =       -11.49087916 eV

  energy without entropy =      -11.49087916  energy(sigma->0) =      -11.49087916


--------------------------------------------------------------------------------------------------------




----------------------------------------- Iteration    1(   7)  ---------------------------------------


    POTLOK:  cpu time    3.28: real time    3.28
    SETDIJ:  cpu time    0.03: real time    0.03
     EDDAV:  cpu time    1.12: real time    1.12
       DOS:  cpu time    0.00: real time    0.00
    CHARGE:  cpu time    0.34: real time    0.34
    MIXING:  cpu time    0.07: real time    0.07
    --------------------------------------------
      LOOP:  cpu time    4.84: real time    4.87

 eigenvalue-minimisations  :    35
 total energy-change (2. order) :-0.3437022E+01  (-0.2924095E+00)
 number of electron      10.0000035 magnetization       0.1959059
 augmentation part        0.3586780 magnetization       0.1897698

 Broyden mixing:
  rms(total) = 0.16929E+00    rms(broyden)= 0.16925E+00
  rms(prec ) = 0.18773E+00
  weight for this iteration     100.00

 eigenvalues of (default mixing * dielectric matrix)
  average eigenvalue GAMMA=   1.1210
  0.9145  1.3276

 Free energy of the ion-electron system (eV)
  ---------------------------------------------------
  alpha Z        PSCENC =         0.43050678
  Ewald energy   TEWEN  =       115.28359984
  -1/2 Hartree   DENC   =      -547.62572778
  -exchange  EXHF       =         0.00000000
  -V(xc)+E(xc)   XCENC  =        40.75012055
  PAW double counting   =       283.65034132     -286.66928049
  entropy T*S    EENTRO =         0.00000000
  eigenvalues    EBANDS =      -149.38995155
  atomic energy  EATOM  =       528.64248996
  ---------------------------------------------------
  free energy    TOTEN  =       -14.92790136 eV

  energy without entropy =      -14.92790136  energy(sigma->0) =      -14.92790136


--------------------------------------------------------------------------------------------------------




----------------------------------------- Iteration    1(   8)  ---------------------------------------


    POTLOK:  cpu time    3.32: real time    3.32
    SETDIJ:  cpu time    0.03: real time    0.03
     EDDAV:  cpu time    1.11: real time    1.11
       DOS:  cpu time    0.00: real time    0.00
    CHARGE:  cpu time    0.34: real time    0.34
    MIXING:  cpu time    0.07: real time    0.07
    --------------------------------------------
      LOOP:  cpu time    4.87: real time    4.88

 eigenvalue-minimisations  :    35
 total energy-change (2. order) :-0.1219993E+01  (-0.4923599E-01)
 number of electron      10.0000035 magnetization       0.0655480
 augmentation part        0.3519211 magnetization       0.0649289

 Broyden mixing:
  rms(total) = 0.74994E-01    rms(broyden)= 0.74968E-01
  rms(prec ) = 0.84645E-01
  weight for this iteration     100.00

 eigenvalues of (default mixing * dielectric matrix)
  average eigenvalue GAMMA=   1.1855
  1.7981  0.9903  0.7679

 Free energy of the ion-electron system (eV)
  ---------------------------------------------------
  alpha Z        PSCENC =         0.43050678
  Ewald energy   TEWEN  =       115.28359984
  -1/2 Hartree   DENC   =      -549.78882383
  -exchange  EXHF       =         0.00000000
  -V(xc)+E(xc)   XCENC  =        39.80521518
  PAW double counting   =       296.98455452     -300.05381202
  entropy T*S    EENTRO =         0.00000000
  eigenvalues    EBANDS =      -147.45162520
  atomic energy  EATOM  =       528.64248996
  ---------------------------------------------------
  free energy    TOTEN  =       -16.14789477 eV

  energy without entropy =      -16.14789477  energy(sigma->0) =      -16.14789477


--------------------------------------------------------------------------------------------------------




----------------------------------------- Iteration    1(   9)  ---------------------------------------


    POTLOK:  cpu time    3.34: real time    3.34
    SETDIJ:  cpu time    0.03: real time    0.03
     EDDAV:  cpu time    1.12: real time    1.12
       DOS:  cpu time    0.00: real time    0.00
    CHARGE:  cpu time    0.34: real time    0.34
    MIXING:  cpu time    0.08: real time    0.08
    --------------------------------------------
      LOOP:  cpu time    4.91: real time    4.93

 eigenvalue-minimisations  :    35
 total energy-change (2. order) :-0.2945674E+00  (-0.2239398E-02)
 number of electron      10.0000034 magnetization      -0.0092188
 augmentation part        0.3518989 magnetization      -0.0099974

 Broyden mixing:
  rms(total) = 0.32172E-01    rms(broyden)= 0.32167E-01
  rms(prec ) = 0.36588E-01
  weight for this iteration     100.00

 eigenvalues of (default mixing * dielectric matrix)
  average eigenvalue GAMMA=   1.2942
  2.2545  1.2274  0.9965  0.6984

 Free energy of the ion-electron system (eV)
  ---------------------------------------------------
  alpha Z        PSCENC =         0.43050678
  Ewald energy   TEWEN  =       115.28359984
  -1/2 Hartree   DENC   =      -549.21377825
  -exchange  EXHF       =         0.00000000
  -V(xc)+E(xc)   XCENC  =        39.48619250
  PAW double counting   =       300.10808454     -303.18528153
  entropy T*S    EENTRO =         0.00000000
  eigenvalues    EBANDS =      -147.99427602
  atomic energy  EATOM  =       528.64248996
  ---------------------------------------------------
  free energy    TOTEN  =       -16.44246216 eV

  energy without entropy =      -16.44246216  energy(sigma->0) =      -16.44246216


--------------------------------------------------------------------------------------------------------




----------------------------------------- Iteration    1(  10)  ---------------------------------------


    POTLOK:  cpu time    3.35: real time    3.35
    SETDIJ:  cpu time    0.03: real time    0.03
     EDDAV:  cpu time    1.30: real time    1.30
       DOS:  cpu time    0.00: real time    0.00
    CHARGE:  cpu time    0.34: real time    0.34
    MIXING:  cpu time    0.08: real time    0.08
    --------------------------------------------
      LOOP:  cpu time    5.11: real time    5.12

 eigenvalue-minimisations  :    42
 total energy-change (2. order) :-0.6901413E-01  (-0.1112696E-02)
 number of electron      10.0000034 magnetization      -0.0076543
 augmentation part        0.3521706 magnetization      -0.0074908

 Broyden mixing:
  rms(total) = 0.55954E-02    rms(broyden)= 0.55847E-02
  rms(prec ) = 0.89082E-02
  weight for this iteration     100.00

 eigenvalues of (default mixing * dielectric matrix)
  average eigenvalue GAMMA=   1.2230
  2.3501  1.3052  0.9919  0.7889  0.6787

 Free energy of the ion-electron system (eV)
  ---------------------------------------------------
  alpha Z        PSCENC =         0.43050678
  Ewald energy   TEWEN  =       115.28359984
  -1/2 Hartree   DENC   =      -548.91467451
  -exchange  EXHF       =         0.00000000
  -V(xc)+E(xc)   XCENC  =        39.40168738
  PAW double counting   =       302.25652780     -305.33848539
  entropy T*S    EENTRO =         0.00000000
  eigenvalues    EBANDS =      -148.27312817
  atomic energy  EATOM  =       528.64248996
  ---------------------------------------------------
  free energy    TOTEN  =       -16.51147630 eV

  energy without entropy =      -16.51147630  energy(sigma->0) =      -16.51147630


--------------------------------------------------------------------------------------------------------




----------------------------------------- Iteration    1(  11)  ---------------------------------------


    POTLOK:  cpu time    3.25: real time    3.25
    SETDIJ:  cpu time    0.03: real time    0.03
     EDDAV:  cpu time    1.29: real time    1.29
       DOS:  cpu time    0.00: real time    0.00
    CHARGE:  cpu time    0.34: real time    0.34
    MIXING:  cpu time    0.09: real time    0.09
    --------------------------------------------
      LOOP:  cpu time    4.99: real time    5.01

 eigenvalue-minimisations  :    42
 total energy-change (2. order) :-0.4105276E-02  (-0.2272189E-04)
 number of electron      10.0000034 magnetization      -0.0008053
 augmentation part        0.3520754 magnetization      -0.0007635

 Broyden mixing:
  rms(total) = 0.29603E-02    rms(broyden)= 0.29598E-02
  rms(prec ) = 0.65824E-02
  weight for this iteration     100.00

 eigenvalues of (default mixing * dielectric matrix)
  average eigenvalue GAMMA=   1.1944
  2.3480  1.2253  1.2253  0.9622  0.7537  0.6520

 Free energy of the ion-electron system (eV)
  ---------------------------------------------------
  alpha Z        PSCENC =         0.43050678
  Ewald energy   TEWEN  =       115.28359984
  -1/2 Hartree   DENC   =      -548.95852173
  -exchange  EXHF       =         0.00000000
  -V(xc)+E(xc)   XCENC  =        39.39852998
  PAW double counting   =       302.46694134     -305.54903498
  entropy T*S    EENTRO =         0.00000000
  eigenvalues    EBANDS =      -148.23009276
  atomic energy  EATOM  =       528.64248996
  ---------------------------------------------------
  free energy    TOTEN  =       -16.51558157 eV

  energy without entropy =      -16.51558157  energy(sigma->0) =      -16.51558157


--------------------------------------------------------------------------------------------------------




----------------------------------------- Iteration    1(  12)  ---------------------------------------


    POTLOK:  cpu time    3.27: real time    3.27
    SETDIJ:  cpu time    0.03: real time    0.03
     EDDAV:  cpu time    1.12: real time    1.12
       DOS:  cpu time    0.00: real time    0.00
    CHARGE:  cpu time    0.34: real time    0.35
    MIXING:  cpu time    0.09: real time    0.09
    --------------------------------------------
      LOOP:  cpu time    4.85: real time    4.92

 eigenvalue-minimisations  :    35
 total energy-change (2. order) :-0.2316425E-02  (-0.1893289E-04)
 number of electron      10.0000034 magnetization       0.0036497
 augmentation part        0.3519932 magnetization       0.0037107

 Broyden mixing:
  rms(total) = 0.16500E-02    rms(broyden)= 0.16499E-02
  rms(prec ) = 0.44198E-02
  weight for this iteration     100.00

 eigenvalues of (default mixing * dielectric matrix)
  average eigenvalue GAMMA=   1.3158
  2.3310  2.3310  1.3205  0.9762  0.8913  0.7283  0.6322

 Free energy of the ion-electron system (eV)
  ---------------------------------------------------
  alpha Z        PSCENC =         0.43050678
  Ewald energy   TEWEN  =       115.28359984
  -1/2 Hartree   DENC   =      -549.04297055
  -exchange  EXHF       =         0.00000000
  -V(xc)+E(xc)   XCENC  =        39.39828191
  PAW double counting   =       302.65241083     -305.73409874
  entropy T*S    EENTRO =         0.00000000
  eigenvalues    EBANDS =      -148.14811804
  atomic energy  EATOM  =       528.64248996
  ---------------------------------------------------
  free energy    TOTEN  =       -16.51789800 eV

  energy without entropy =      -16.51789800  energy(sigma->0) =      -16.51789800


--------------------------------------------------------------------------------------------------------




----------------------------------------- Iteration    1(  13)  ---------------------------------------


    POTLOK:  cpu time    3.27: real time    3.27
    SETDIJ:  cpu time    0.03: real time    0.03
     EDDAV:  cpu time    1.29: real time    1.29
       DOS:  cpu time    0.00: real time    0.00
    CHARGE:  cpu time    0.34: real time    0.34
    MIXING:  cpu time    0.09: real time    0.09
    --------------------------------------------
      LOOP:  cpu time    5.03: real time    5.05

 eigenvalue-minimisations  :    42
 total energy-change (2. order) :-0.9076184E-03  (-0.2833486E-04)
 number of electron      10.0000034 magnetization       0.0018645
 augmentation part        0.3519719 magnetization       0.0018257

 Broyden mixing:
  rms(total) = 0.10795E-02    rms(broyden)= 0.10792E-02
  rms(prec ) = 0.26915E-02
  weight for this iteration     100.00

 eigenvalues of (default mixing * dielectric matrix)
  average eigenvalue GAMMA=   1.3320
  2.8076  2.3779  1.2875  1.0170  1.0170  0.8141  0.7055  0.6292

 Free energy of the ion-electron system (eV)
  ---------------------------------------------------
  alpha Z        PSCENC =         0.43050678
  Ewald energy   TEWEN  =       115.28359984
  -1/2 Hartree   DENC   =      -549.10274086
  -exchange  EXHF       =         0.00000000
  -V(xc)+E(xc)   XCENC  =        39.39749027
  PAW double counting   =       302.72623320     -305.80731957
  entropy T*S    EENTRO =         0.00000000
  eigenvalues    EBANDS =      -148.08906524
  atomic energy  EATOM  =       528.64248996
  ---------------------------------------------------
  free energy    TOTEN  =       -16.51880562 eV

  energy without entropy =      -16.51880562  energy(sigma->0) =      -16.51880562


--------------------------------------------------------------------------------------------------------




----------------------------------------- Iteration    1(  14)  ---------------------------------------


    POTLOK:  cpu time    4.15: real time    4.15
    SETDIJ:  cpu time    0.04: real time    0.04
     EDDAV:  cpu time    1.32: real time    1.32
       DOS:  cpu time    0.00: real time    0.00
    CHARGE:  cpu time    0.53: real time    0.53
    MIXING:  cpu time    0.15: real time    0.15
    --------------------------------------------
      LOOP:  cpu time    6.20: real time    6.27

 eigenvalue-minimisations  :    28
 total energy-change (2. order) :-0.8978393E-03  (-0.6940681E-05)
 number of electron      10.0000034 magnetization      -0.0007557
 augmentation part        0.3519864 magnetization      -0.0007982

 Broyden mixing:
  rms(total) = 0.81641E-03    rms(broyden)= 0.81634E-03
  rms(prec ) = 0.17934E-02
  weight for this iteration     100.00

 eigenvalues of (default mixing * dielectric matrix)
  average eigenvalue GAMMA=   1.4042
  3.2685  2.3799  1.4692  1.4692  0.9782  0.9782  0.7745  0.6939  0.6262

 Free energy of the ion-electron system (eV)
  ---------------------------------------------------
  alpha Z        PSCENC =         0.43050678
  Ewald energy   TEWEN  =       115.28359984
  -1/2 Hartree   DENC   =      -549.13510551
  -exchange  EXHF       =         0.00000000
  -V(xc)+E(xc)   XCENC  =        39.39704635
  PAW double counting   =       302.65828734     -305.73921501
  entropy T*S    EENTRO =         0.00000000
  eigenvalues    EBANDS =      -148.05731322
  atomic energy  EATOM  =       528.64248996
  ---------------------------------------------------
  free energy    TOTEN  =       -16.51970345 eV

  energy without entropy =      -16.51970345  energy(sigma->0) =      -16.51970345


--------------------------------------------------------------------------------------------------------




----------------------------------------- Iteration    1(  15)  ---------------------------------------


    POTLOK:  cpu time    4.16: real time    4.16
    SETDIJ:  cpu time    0.04: real time    0.04
     EDDAV:  cpu time    1.86: real time    1.86
       DOS:  cpu time    0.00: real time    0.00
    CHARGE:  cpu time    0.54: real time    0.55
    MIXING:  cpu time    0.17: real time    0.17
    --------------------------------------------
      LOOP:  cpu time    6.78: real time    6.80

 eigenvalue-minimisations  :    42
 total energy-change (2. order) :-0.5057611E-03  (-0.1233410E-04)
 number of electron      10.0000034 magnetization      -0.0009393
 augmentation part        0.3519690 magnetization      -0.0009324

 Broyden mixing:
  rms(total) = 0.39659E-03    rms(broyden)= 0.39639E-03
  rms(prec ) = 0.89060E-03
  weight for this iteration     100.00

 eigenvalues of (default mixing * dielectric matrix)
  average eigenvalue GAMMA=   1.5337
  4.4099  2.4275  2.1983  1.3646  1.0282  1.0282  0.8420  0.7329  0.6797  0.6258

 Free energy of the ion-electron system (eV)
  ---------------------------------------------------
  alpha Z        PSCENC =         0.43050678
  Ewald energy   TEWEN  =       115.28359984
  -1/2 Hartree   DENC   =      -549.17800257
  -exchange  EXHF       =         0.00000000
  -V(xc)+E(xc)   XCENC  =        39.39768882
  PAW double counting   =       302.57812217     -305.65911255
  entropy T*S    EENTRO =         0.00000000
  eigenvalues    EBANDS =      -148.01550167
  atomic energy  EATOM  =       528.64248996
  ---------------------------------------------------
  free energy    TOTEN  =       -16.52020922 eV

  energy without entropy =      -16.52020922  energy(sigma->0) =      -16.52020922


--------------------------------------------------------------------------------------------------------




----------------------------------------- Iteration    1(  16)  ---------------------------------------


    POTLOK:  cpu time    4.03: real time    4.03
    SETDIJ:  cpu time    0.04: real time    0.04
     EDDAV:  cpu time    1.01: real time    1.01
       DOS:  cpu time    0.00: real time    0.00
    CHARGE:  cpu time    0.55: real time    0.55
    MIXING:  cpu time    0.19: real time    0.19
    --------------------------------------------
      LOOP:  cpu time    5.82: real time    5.89

 eigenvalue-minimisations  :    21
 total energy-change (2. order) :-0.2053752E-03  (-0.6254670E-06)
 number of electron      10.0000034 magnetization      -0.0004095
 augmentation part        0.3519626 magnetization      -0.0003921

 Broyden mixing:
  rms(total) = 0.27420E-03    rms(broyden)= 0.27412E-03
  rms(prec ) = 0.57650E-03
  weight for this iteration     100.00

 eigenvalues of (default mixing * dielectric matrix)
  average eigenvalue GAMMA=   1.6294
  5.3817  2.6159  2.3484  1.3599  1.3599  1.0192  1.0192  0.8140  0.7160  0.6643
  0.6245

 Free energy of the ion-electron system (eV)
  ---------------------------------------------------
  alpha Z        PSCENC =         0.43050678
  Ewald energy   TEWEN  =       115.28359984
  -1/2 Hartree   DENC   =      -549.19434218
  -exchange  EXHF       =         0.00000000
  -V(xc)+E(xc)   XCENC  =        39.39809252
  PAW double counting   =       302.56996034     -305.65104660
  entropy T*S    EENTRO =         0.00000000
  eigenvalues    EBANDS =      -147.99967526
  atomic energy  EATOM  =       528.64248996
  ---------------------------------------------------
  free energy    TOTEN  =       -16.52041459 eV

  energy without entropy =      -16.52041459  energy(sigma->0) =      -16.52041459


--------------------------------------------------------------------------------------------------------




----------------------------------------- Iteration    1(  17)  ---------------------------------------


    POTLOK:  cpu time    4.02: real time    4.03
    SETDIJ:  cpu time    0.04: real time    0.04
     EDDAV:  cpu time    0.95: real time    0.95
       DOS:  cpu time    0.00: real time    0.00
    CHARGE:  cpu time    0.33: real time    0.33
    MIXING:  cpu time    0.11: real time    0.11
    --------------------------------------------
      LOOP:  cpu time    5.46: real time    5.68

 eigenvalue-minimisations  :    28
 total energy-change (2. order) :-0.1751579E-03  (-0.1885989E-05)
 number of electron      10.0000034 magnetization       0.0000716
 augmentation part        0.3519518 magnetization       0.0000778

 Broyden mixing:
  rms(total) = 0.16894E-03    rms(broyden)= 0.16891E-03
  rms(prec ) = 0.31647E-03
  weight for this iteration     100.00

 eigenvalues of (default mixing * dielectric matrix)
  average eigenvalue GAMMA=   1.7199
  6.4842  2.8922  2.3790  1.8238  1.3563  1.0323  1.0323  0.8821  0.7831  0.7024
  0.6216  0.6491

 Free energy of the ion-electron system (eV)
  ---------------------------------------------------
  alpha Z        PSCENC =         0.43050678
  Ewald energy   TEWEN  =       115.28359984
  -1/2 Hartree   DENC   =      -549.20277119
  -exchange  EXHF       =         0.00000000
  -V(xc)+E(xc)   XCENC  =        39.39827941
  PAW double counting   =       302.58125744     -305.66242742
  entropy T*S    EENTRO =         0.00000000
  eigenvalues    EBANDS =      -147.99152458
  atomic energy  EATOM  =       528.64248996
  ---------------------------------------------------
  free energy    TOTEN  =       -16.52058975 eV

  energy without entropy =      -16.52058975  energy(sigma->0) =      -16.52058975


--------------------------------------------------------------------------------------------------------




----------------------------------------- Iteration    1(  18)  ---------------------------------------


    POTLOK:  cpu time    4.11: real time    4.11
    SETDIJ:  cpu time    0.05: real time    0.05
     EDDAV:  cpu time    0.78: real time    0.78
       DOS:  cpu time    0.00: real time    0.00
    --------------------------------------------
      LOOP:  cpu time    4.94: real time    4.96

 eigenvalue-minimisations  :    14
 total energy-change (2. order) :-0.7692693E-04  (-0.1609156E-06)
 number of electron      10.0000034 magnetization       0.0000716
 augmentation part        0.3519518 magnetization       0.0000778

 Free energy of the ion-electron system (eV)
  ---------------------------------------------------
  alpha Z        PSCENC =         0.43050678
  Ewald energy   TEWEN  =       115.28359984
  -1/2 Hartree   DENC   =      -549.19757273
  -exchange  EXHF       =         0.00000000
  -V(xc)+E(xc)   XCENC  =        39.39788180
  PAW double counting   =       302.58474874     -305.66588178
  entropy T*S    EENTRO =         0.00000000
  eigenvalues    EBANDS =      -147.99643929
  atomic energy  EATOM  =       528.64248996
  ---------------------------------------------------
  free energy    TOTEN  =       -16.52066668 eV

  energy without entropy =      -16.52066668  energy(sigma->0) =      -16.52066668


--------------------------------------------------------------------------------------------------------




 average (electrostatic) potential at core
  the test charge radii are     0.7089
  (the norm of the test charge is              1.0000)
       1 -76.1661       2 -76.1661
 
 
 
 E-fermi :  -9.0716     XC(G=0):  -0.6317     alpha+bet : -0.1738


 spin component 1

 k-point   1 :       0.0000    0.0000    0.0000
  band No.  band energies     occupation 
      1     -27.8636      1.00000
      2     -13.5747      1.00000
      3     -11.2840      1.00000
      4     -11.2840      1.00000
      5      -9.9920      1.00000
      6      -2.1619      0.00000
      7      -2.1619      0.00000

 spin component 2

 k-point   1 :       0.0000    0.0000    0.0000
  band No.  band energies     occupation 
      1     -27.8636      1.00000
      2     -13.5746      1.00000
      3     -11.2840      1.00000
      4     -11.2840      1.00000
      5      -9.9920      1.00000
      6      -2.1618      0.00000
      7      -2.1618      0.00000


--------------------------------------------------------------------------------------------------------


 soft charge-density along one line, spin component           1
         0         1         2         3         4         5         6         7         8         9
 total charge-density along one line
 
 soft charge-density along one line, spin component           2
         0         1         2         3         4         5         6         7         8         9
 total charge-density along one line
 
 pseudopotential strength for first ion, spin component:           1
 14.225   0.083   0.000   0.014   0.000   0.000   0.024   0.000
  0.083   0.006   0.000   0.001   0.000   0.000   0.000   0.000
  0.000   0.000  -7.571   0.000   0.000  -0.200   0.000   0.000
  0.014   0.001   0.000  -7.625   0.000   0.000  -0.218   0.000
  0.000   0.000   0.000   0.000  -7.571   0.000   0.000  -0.200
  0.000   0.000  -0.200   0.000   0.000   0.860   0.000   0.000
  0.024   0.000   0.000  -0.218   0.000   0.000   0.860   0.000
  0.000   0.000   0.000   0.000  -0.200   0.000   0.000   0.860
 pseudopotential strength for first ion, spin component:           2
 14.225   0.083   0.000   0.014   0.000   0.000   0.024   0.000
  0.083   0.006   0.000   0.001   0.000   0.000   0.000   0.000
  0.000   0.000  -7.571   0.000   0.000  -0.200   0.000   0.000
  0.014   0.001   0.000  -7.625   0.000   0.000  -0.218   0.000
  0.000   0.000   0.000   0.000  -7.571   0.000   0.000  -0.200
  0.000   0.000  -0.200   0.000   0.000   0.860   0.000   0.000
  0.024   0.000   0.000  -0.218   0.000   0.000   0.860   0.000
  0.000   0.000   0.000   0.000  -0.200   0.000   0.000   0.860
 total augmentation occupancy for first ion, spin component:           1
  1.906  -0.663   0.000   0.130   0.000   0.000   0.104   0.000
 -0.663   0.853   0.000   0.725   0.000   0.000  -0.287   0.000
  0.000   0.000   1.026   0.000   0.000  -0.118   0.000   0.000
  0.130   0.725   0.000   1.645   0.000   0.000  -0.221   0.000
  0.000   0.000   0.000   0.000   1.026   0.000   0.000  -0.118
  0.000   0.000  -0.118   0.000   0.000   0.014   0.000   0.000
  0.104  -0.287   0.000  -0.221   0.000   0.000   0.117   0.000
  0.000   0.000   0.000   0.000  -0.118   0.000   0.000   0.014
 total augmentation occupancy for first ion, spin component:           2
  0.000   0.000   0.000   0.000   0.000   0.000   0.000   0.000
  0.000   0.000   0.000   0.000   0.000   0.000   0.000   0.000
  0.000   0.000   0.000   0.000   0.000   0.000   0.000   0.000
  0.000   0.000   0.000   0.000   0.000   0.000   0.000   0.000
  0.000   0.000   0.000   0.000   0.000   0.000   0.000   0.000
  0.000   0.000   0.000   0.000   0.000   0.000   0.000   0.000
  0.000   0.000   0.000   0.000   0.000   0.000   0.000   0.000
  0.000   0.000   0.000   0.000   0.000   0.000   0.000   0.000


------------------------ aborting loop because EDIFF is reached ----------------------------------------


    CHARGE:  cpu time    0.54: real time    0.54
    FORLOC:  cpu time    0.07: real time    0.07
    FORNL :  cpu time    0.21: real time    0.21
    STRESS:  cpu time    0.56: real time    0.57
    FORHAR:  cpu time    0.48: real time    0.48
    MIXING:  cpu time    0.19: real time    0.20

  FORCE on cell =-STRESS in cart. coord.  units (eV):
  Direction    XX          YY          ZZ          XY          YZ          ZX
  --------------------------------------------------------------------------------------
  Alpha Z     0.43051     0.43051     0.43051
  Ewald     -68.56873   -68.56873   252.42102     0.00000     0.00000     0.00000
  Hartree   143.31868   143.31868   262.54784     0.00000     0.00000     0.00000
  E(xc)     -41.95857   -41.95857   -40.70082     0.00000     0.00000     0.00000
  Local    -214.01320  -214.01320  -627.75870     0.00000     0.00000     0.00000
  n-local   -15.41949   -15.41949   -27.50028     0.00000     0.00000     0.00000
  augment     1.32015     1.32015     1.71652     0.00000     0.00000     0.00000
  Kinetic   192.33457   192.33457   174.13328     0.00000     0.00000     0.00000
  Fock        0.00000     0.00000     0.00000     0.00000     0.00000     0.00000
  -------------------------------------------------------------------------------------
  Total      -2.55608    -2.55608    -4.71063     0.00000     0.00000     0.00000
  in kB      -4.09529    -4.09529    -7.54727     0.00000     0.00000     0.00000
  external pressure =       -5.25 kB  Pullay stress =        0.00 kB


 VOLUME and BASIS-vectors are now :
 -----------------------------------------------------------------------------
  energy-cutoff  :      350.00
  volume of cell :     1000.00
      direct lattice vectors                 reciprocal lattice vectors
    10.000000000  0.000000000  0.000000000     0.100000000  0.000000000  0.000000000
     0.000000000 10.000000000  0.000000000     0.000000000  0.100000000  0.000000000
     0.000000000  0.000000000 10.000000000     0.000000000  0.000000000  0.100000000

  length of vectors
    10.000000000 10.000000000 10.000000000     0.100000000  0.100000000  0.100000000


 FORCES acting on ions
    electron-ion (+dipol)            ewald-force                    non-local-force                 convergence-correction
 -----------------------------------------------------------------------------------------------
   0.240E-12 0.109E-12 -.237E+03   -.300E-16 -.178E-16 0.280E+03   -.165E-23 0.331E-23 -.442E+02   -.701E-13 -.623E-13 -.270E-02
   0.238E-12 -.978E-12 0.237E+03   -.297E-16 -.619E-17 -.280E+03   0.165E-23 -.331E-23 0.442E+02   -.791E-13 -.823E-13 0.270E-02
 -----------------------------------------------------------------------------------------------
   0.478E-12 -.870E-12 0.369E-12   -.598E-16 -.240E-16 0.000E+00   0.000E+00 0.000E+00 0.000E+00   -.149E-12 -.145E-12 -.766E-13
 
 
 POSITION                                       TOTAL-FORCE (eV/Angst)
 -----------------------------------------------------------------------------------
      5.00000      5.00000      5.56499         0.000000      0.000000     -1.274642
      5.00000      5.00000      4.43501         0.000000      0.000000      1.274642
 -----------------------------------------------------------------------------------
    total drift:                                0.000000      0.000000      0.000000


--------------------------------------------------------------------------------------------------------



  FREE ENERGIE OF THE ION-ELECTRON SYSTEM (eV)
  ---------------------------------------------------
  free  energy   TOTEN  =       -16.520667 eV

  energy  without entropy=      -16.520667  energy(sigma->0) =      -16.520667
 


--------------------------------------------------------------------------------------------------------


    POTLOK:  cpu time    4.08: real time    4.08


--------------------------------------------------------------------------------------------------------




--------------------------------------------------------------------------------------------------------


    WAVPRE:  cpu time    0.18: real time    0.18
    FEWALD:  cpu time    0.00: real time    0.00
    ORTHCH:  cpu time    0.03: real time    0.03
     LOOP+:  cpu time   88.58: real time   89.75


----------------------------------------- Iteration    2(   1)  ---------------------------------------


    POTLOK:  cpu time    4.02: real time    4.02
    SETDIJ:  cpu time    0.04: real time    0.04
     EDDAV:  cpu time    1.20: real time    1.20
       DOS:  cpu time    0.00: real time    0.00
    CHARGE:  cpu time    0.53: real time    0.53
    MIXING:  cpu time    0.09: real time    0.09
    --------------------------------------------
      LOOP:  cpu time    5.88: real time    5.88

 eigenvalue-minimisations  :    28
 total energy-change (2. order) : 0.1126385E+01  (-0.4163272E+01)
 number of electron       9.9999941 magnetization       0.0001404
 augmentation part        0.4582586 magnetization       0.0001379

 Broyden mixing:
  rms(total) = 0.23737E+00    rms(broyden)= 0.23377E+00
  rms(prec ) = 0.28571E+00
  weight for this iteration     100.00

 Free energy of the ion-electron system (eV)
  ---------------------------------------------------
  alpha Z        PSCENC =         0.43050678
  Ewald energy   TEWEN  =       153.98742247
  -1/2 Hartree   DENC   =      -570.82301426
  -exchange  EXHF       =         0.00000000
  -V(xc)+E(xc)   XCENC  =        40.07826803
  PAW double counting   =       302.58445788     -305.66553507
  entropy T*S    EENTRO =         0.00000000
  eigenvalues    EBANDS =      -164.62880053
  atomic energy  EATOM  =       528.64248996
  ---------------------------------------------------
  free energy    TOTEN  =       -15.39420473 eV

  energy without entropy =      -15.39420473  energy(sigma->0) =      -15.39420473


--------------------------------------------------------------------------------------------------------




----------------------------------------- Iteration    2(   2)  ---------------------------------------


    POTLOK:  cpu time    4.10: real time    4.11
    SETDIJ:  cpu time    0.04: real time    0.04
     EDDAV:  cpu time    1.07: real time    1.07
       DOS:  cpu time    0.00: real time    0.00
    CHARGE:  cpu time    0.41: real time    0.41
    MIXING:  cpu time    0.08: real time    0.08
    --------------------------------------------
      LOOP:  cpu time    5.70: real time    5.71

 eigenvalue-minimisations  :    28
 total energy-change (2. order) : 0.1111184E+00  (-0.5319609E-01)
 number of electron       9.9999940 magnetization       0.0000101
 augmentation part        0.4620681 magnetization       0.0000078

 Broyden mixing:
  rms(total) = 0.13851E+00    rms(broyden)= 0.13830E+00
  rms(prec ) = 0.16666E+00
  weight for this iteration     100.00

 eigenvalues of (default mixing * dielectric matrix)
  average eigenvalue GAMMA=   2.0065
  2.0065

 Free energy of the ion-electron system (eV)
  ---------------------------------------------------
  alpha Z        PSCENC =         0.43050678
  Ewald energy   TEWEN  =       153.98742247
  -1/2 Hartree   DENC   =      -576.27123268
  -exchange  EXHF       =         0.00000000
  -V(xc)+E(xc)   XCENC  =        40.39237515
  PAW double counting   =       324.10926699     -327.34294511
  entropy T*S    EENTRO =         0.00000000
  eigenvalues    EBANDS =      -159.23096994
  atomic energy  EATOM  =       528.64248996
  ---------------------------------------------------
  free energy    TOTEN  =       -15.28308637 eV

  energy without entropy =      -15.28308637  energy(sigma->0) =      -15.28308637


--------------------------------------------------------------------------------------------------------




----------------------------------------- Iteration    2(   3)  ---------------------------------------


    POTLOK:  cpu time    3.71: real time    3.71
    SETDIJ:  cpu time    0.04: real time    0.04
     EDDAV:  cpu time    1.41: real time    1.41
       DOS:  cpu time    0.00: real time    0.00
    CHARGE:  cpu time    0.41: real time    0.41
    MIXING:  cpu time    0.08: real time    0.08
    --------------------------------------------
      LOOP:  cpu time    5.65: real time    5.70

 eigenvalue-minimisations  :    42
 total energy-change (2. order) : 0.3530976E-01  (-0.3592225E-01)
 number of electron       9.9999942 magnetization       0.0000260
 augmentation part        0.4493916 magnetization       0.0000267

 Broyden mixing:
  rms(total) = 0.39705E-01    rms(broyden)= 0.39591E-01
  rms(prec ) = 0.51221E-01
  weight for this iteration     100.00

 eigenvalues of (default mixing * dielectric matrix)
  average eigenvalue GAMMA=   1.4015
  1.4015  1.4015

 Free energy of the ion-electron system (eV)
  ---------------------------------------------------
  alpha Z        PSCENC =         0.43050678
  Ewald energy   TEWEN  =       153.98742247
  -1/2 Hartree   DENC   =      -582.48846084
  -exchange  EXHF       =         0.00000000
  -V(xc)+E(xc)   XCENC  =        40.72925371
  PAW double counting   =       349.26459458     -352.69907130
  entropy T*S    EENTRO =         0.00000000
  eigenvalues    EBANDS =      -153.11451197
  atomic energy  EATOM  =       528.64248996
  ---------------------------------------------------
  free energy    TOTEN  =       -15.24777661 eV

  energy without entropy =      -15.24777661  energy(sigma->0) =      -15.24777661


--------------------------------------------------------------------------------------------------------




----------------------------------------- Iteration    2(   4)  ---------------------------------------


    POTLOK:  cpu time    3.74: real time    3.74
    SETDIJ:  cpu time    0.04: real time    0.04
     EDDAV:  cpu time    1.43: real time    1.43
       DOS:  cpu time    0.00: real time    0.00
    CHARGE:  cpu time    0.41: real time    0.41
    MIXING:  cpu time    0.09: real time    0.09
    --------------------------------------------
      LOOP:  cpu time    5.70: real time    5.72

 eigenvalue-minimisations  :    42
 total energy-change (2. order) : 0.4251052E-02  (-0.3501827E-02)
 number of electron       9.9999942 magnetization      -0.0000035
 augmentation part        0.4524906 magnetization      -0.0000043

 Broyden mixing:
  rms(total) = 0.19114E-01    rms(broyden)= 0.19091E-01
  rms(prec ) = 0.21567E-01
  weight for this iteration     100.00

 eigenvalues of (default mixing * dielectric matrix)
  average eigenvalue GAMMA=   1.6630
  2.4956  1.0922  1.4010

 Free energy of the ion-electron system (eV)
  ---------------------------------------------------
  alpha Z        PSCENC =         0.43050678
  Ewald energy   TEWEN  =       153.98742247
  -1/2 Hartree   DENC   =      -580.46502938
  -exchange  EXHF       =         0.00000000
  -V(xc)+E(xc)   XCENC  =        40.61511360
  PAW double counting   =       344.65463717     -348.05649575
  entropy T*S    EENTRO =         0.00000000
  eigenvalues    EBANDS =      -155.05217041
  atomic energy  EATOM  =       528.64248996
  ---------------------------------------------------
  free energy    TOTEN  =       -15.24352556 eV

  energy without entropy =      -15.24352556  energy(sigma->0) =      -15.24352556


--------------------------------------------------------------------------------------------------------




----------------------------------------- Iteration    2(   5)  ---------------------------------------


    POTLOK:  cpu time    3.77: real time    3.77
    SETDIJ:  cpu time    0.04: real time    0.04
     EDDAV:  cpu time    1.47: real time    1.48
       DOS:  cpu time    0.00: real time    0.00
    CHARGE:  cpu time    0.46: real time    0.46
    MIXING:  cpu time    0.10: real time    0.10
    --------------------------------------------
      LOOP:  cpu time    5.84: real time    5.86

 eigenvalue-minimisations  :    42
 total energy-change (2. order) :-0.9936620E-03  (-0.1749889E-03)
 number of electron       9.9999942 magnetization      -0.0000023
 augmentation part        0.4517713 magnetization      -0.0000013

 Broyden mixing:
  rms(total) = 0.15304E-02    rms(broyden)= 0.15121E-02
  rms(prec ) = 0.27440E-02
  weight for this iteration     100.00

 eigenvalues of (default mixing * dielectric matrix)
  average eigenvalue GAMMA=   1.5285
  2.5601  1.3989  1.2045  0.9506

 Free energy of the ion-electron system (eV)
  ---------------------------------------------------
  alpha Z        PSCENC =         0.43050678
  Ewald energy   TEWEN  =       153.98742247
  -1/2 Hartree   DENC   =      -580.82926025
  -exchange  EXHF       =         0.00000000
  -V(xc)+E(xc)   XCENC  =        40.63120185
  PAW double counting   =       349.44123649     -352.88297979
  entropy T*S    EENTRO =         0.00000000
  eigenvalues    EBANDS =      -154.66513674
  atomic energy  EATOM  =       528.64248996
  ---------------------------------------------------
  free energy    TOTEN  =       -15.24451922 eV

  energy without entropy =      -15.24451922  energy(sigma->0) =      -15.24451922


--------------------------------------------------------------------------------------------------------




----------------------------------------- Iteration    2(   6)  ---------------------------------------


    POTLOK:  cpu time    4.14: real time    4.14
    SETDIJ:  cpu time    0.04: real time    0.04
     EDDAV:  cpu time    2.00: real time    2.00
       DOS:  cpu time    0.00: real time    0.00
    --------------------------------------------
      LOOP:  cpu time    6.19: real time    6.20

 eigenvalue-minimisations  :    56
 total energy-change (2. order) :-0.8524370E-04  (-0.5077594E-05)
 number of electron       9.9999942 magnetization      -0.0000023
 augmentation part        0.4517713 magnetization      -0.0000013

 Free energy of the ion-electron system (eV)
  ---------------------------------------------------
  alpha Z        PSCENC =         0.43050678
  Ewald energy   TEWEN  =       153.98742247
  -1/2 Hartree   DENC   =      -580.81584928
  -exchange  EXHF       =         0.00000000
  -V(xc)+E(xc)   XCENC  =        40.62995213
  PAW double counting   =       349.46219451     -352.90402827
  entropy T*S    EENTRO =         0.00000000
  eigenvalues    EBANDS =      -154.67729277
  atomic energy  EATOM  =       528.64248996
  ---------------------------------------------------
  free energy    TOTEN  =       -15.24460446 eV

  energy without entropy =      -15.24460446  energy(sigma->0) =      -15.24460446


--------------------------------------------------------------------------------------------------------




 average (electrostatic) potential at core
  the test charge radii are     0.7089
  (the norm of the test charge is              1.0000)
       1 -76.2862       2 -76.2862
 
 
 
 E-fermi :  -9.0638     XC(G=0):  -0.7593     alpha+bet : -0.1738


 spin component 1

 k-point   1 :       0.0000    0.0000    0.0000
  band No.  band energies     occupation 
      1     -29.8140      1.00000
      2     -12.6853      1.00000
      3     -12.4115      1.00000
      4     -12.4115      1.00000
      5     -10.0163      1.00000
      6      -0.6839      0.00000
      7      -0.6839      0.00000

 spin component 2

 k-point   1 :       0.0000    0.0000    0.0000
  band No.  band energies     occupation 
      1     -29.8139      1.00000
      2     -12.6853      1.00000
      3     -12.4115      1.00000
      4     -12.4115      1.00000
      5     -10.0163      1.00000
      6      -0.6840      0.00000
      7      -0.6840      0.00000


--------------------------------------------------------------------------------------------------------


 soft charge-density along one line, spin component           1
         0         1         2         3         4         5         6         7         8         9
 total charge-density along one line
 
 soft charge-density along one line, spin component           2
         0         1         2         3         4         5         6         7         8         9
 total charge-density along one line
 
 pseudopotential strength for first ion, spin component:           1
 14.263   0.083   0.000   0.033   0.000   0.000   0.042   0.000
  0.083   0.006   0.000   0.002   0.000   0.000   0.000   0.000
  0.000   0.000  -7.519   0.000   0.000  -0.185   0.000   0.000
  0.033   0.002   0.000  -7.694   0.000   0.000  -0.235   0.000
  0.000   0.000   0.000   0.000  -7.519   0.000   0.000  -0.185
  0.000   0.000  -0.185   0.000   0.000   0.864   0.000   0.000
  0.042   0.000   0.000  -0.235   0.000   0.000   0.863   0.000
  0.000   0.000   0.000   0.000  -0.185   0.000   0.000   0.864
 pseudopotential strength for first ion, spin component:           2
 14.263   0.083   0.000   0.033   0.000   0.000   0.042   0.000
  0.083   0.006   0.000   0.002   0.000   0.000   0.000   0.000
  0.000   0.000  -7.519   0.000   0.000  -0.185   0.000   0.000
  0.033   0.002   0.000  -7.694   0.000   0.000  -0.235   0.000
  0.000   0.000   0.000   0.000  -7.519   0.000   0.000  -0.185
  0.000   0.000  -0.185   0.000   0.000   0.864   0.000   0.000
  0.042   0.000   0.000  -0.235   0.000   0.000   0.863   0.000
  0.000   0.000   0.000   0.000  -0.185   0.000   0.000   0.864
 total augmentation occupancy for first ion, spin component:           1
  1.934  -0.940   0.000   0.006   0.000   0.000   0.036   0.000
 -0.940   1.126   0.000   0.799   0.000   0.000  -0.274   0.000
  0.000   0.000   1.104   0.000   0.000  -0.141   0.000   0.000
  0.006   0.799   0.000   1.861   0.000   0.000  -0.058   0.000
  0.000   0.000   0.000   0.000   1.104   0.000   0.000  -0.141
  0.000   0.000  -0.141   0.000   0.000   0.018   0.000   0.000
  0.036  -0.274   0.000  -0.058   0.000   0.000   0.168   0.000
  0.000   0.000   0.000   0.000  -0.141   0.000   0.000   0.018
 total augmentation occupancy for first ion, spin component:           2
  0.000   0.000   0.000   0.000   0.000   0.000   0.000   0.000
  0.000   0.000   0.000   0.000   0.000   0.000   0.000   0.000
  0.000   0.000   0.000   0.000   0.000   0.000   0.000   0.000
  0.000   0.000   0.000   0.000   0.000   0.000   0.000   0.000
  0.000   0.000   0.000   0.000   0.000   0.000   0.000   0.000
  0.000   0.000   0.000   0.000   0.000   0.000   0.000   0.000
  0.000   0.000   0.000   0.000   0.000   0.000   0.000   0.000
  0.000   0.000   0.000   0.000   0.000   0.000   0.000   0.000


------------------------ aborting loop because EDIFF is reached ----------------------------------------


    CHARGE:  cpu time    0.46: real time    0.46
    FORLOC:  cpu time    0.07: real time    0.07
    FORNL :  cpu time    0.21: real time    0.22
    STRESS:  cpu time    0.57: real time    0.57
    FORHAR:  cpu time    0.48: real time    0.48
    MIXING:  cpu time    0.10: real time    0.10

  FORCE on cell =-STRESS in cart. coord.  units (eV):
  Direction    XX          YY          ZZ          XY          YZ          ZX
  --------------------------------------------------------------------------------------
  Alpha Z     0.43051     0.43051     0.43051
  Ewald     -68.47443   -68.47443   290.93624     0.00000     0.00000     0.00000
  Hartree   155.57382   155.57382   269.73608     0.00000     0.00000     0.00000
  E(xc)     -43.23284   -43.23284   -41.92902     0.00000     0.00000     0.00000
  Local    -229.67694  -229.67694  -650.60973     0.00000     0.00000     0.00000
  n-local   -17.29658   -17.29658   -28.73197     0.00000     0.00000     0.00000
  augment     1.70819     1.70819     0.75966     0.00000     0.00000     0.00000
  Kinetic   198.15764   198.15764   182.02696     0.00000     0.00000     0.00000
  Fock        0.00000     0.00000     0.00000     0.00000     0.00000     0.00000
  -------------------------------------------------------------------------------------
  Total      -2.81063    -2.81063    22.61873     0.00000     0.00000     0.00000
  in kB      -4.50313    -4.50313    36.23922     0.00000     0.00000     0.00000
  external pressure =        9.08 kB  Pullay stress =        0.00 kB


 VOLUME and BASIS-vectors are now :
 -----------------------------------------------------------------------------
  energy-cutoff  :      350.00
  volume of cell :     1000.00
      direct lattice vectors                 reciprocal lattice vectors
    10.000000000  0.000000000  0.000000000     0.100000000  0.000000000  0.000000000
     0.000000000 10.000000000  0.000000000     0.000000000  0.100000000  0.000000000
     0.000000000  0.000000000 10.000000000     0.000000000  0.000000000  0.100000000

  length of vectors
    10.000000000 10.000000000 10.000000000     0.100000000  0.100000000  0.100000000


 FORCES acting on ions
    electron-ion (+dipol)            ewald-force                    non-local-force                 convergence-correction
 -----------------------------------------------------------------------------------------------
   0.263E-12 0.222E-12 -.280E+03   0.105E-16 -.356E-17 0.353E+03   0.258E-25 0.000E+00 -.475E+02   -.777E-13 -.715E-13 -.330E-01
   0.258E-12 -.998E-12 0.280E+03   -.702E-16 -.204E-16 -.353E+03   0.000E+00 0.000E+00 0.475E+02   -.906E-13 -.871E-13 0.330E-01
 -----------------------------------------------------------------------------------------------
   0.521E-12 -.776E-12 0.102E-11   -.598E-16 -.240E-16 0.000E+00   0.258E-25 0.000E+00 0.000E+00   -.168E-12 -.159E-12 -.714E-13
 
 
 POSITION                                       TOTAL-FORCE (eV/Angst)
 -----------------------------------------------------------------------------------
      5.00000      5.00000      5.50350         0.000000      0.000000     25.795551
      5.00000      5.00000      4.49650         0.000000      0.000000    -25.795551
 -----------------------------------------------------------------------------------
    total drift:                                0.000000      0.000000      0.000000


--------------------------------------------------------------------------------------------------------



  FREE ENERGIE OF THE ION-ELECTRON SYSTEM (eV)
  ---------------------------------------------------
  free  energy   TOTEN  =       -15.244604 eV

  energy  without entropy=      -15.244604  energy(sigma->0) =      -15.244604
 
 d Force =-0.1507843E+01[-0.317E+01, 0.157E+00]  d Energy =-0.1276062E+01-0.232E+00
 d Force =-0.3896237E+02[-0.435E+02,-0.345E+02]  d Ewald  =-0.3870382E+02-0.259E+00


--------------------------------------------------------------------------------------------------------


    POTLOK:  cpu time    4.04: real time    4.04


--------------------------------------------------------------------------------------------------------


 Steepest descent step on ions:
 trial-energy change:    1.276062  1 .order    1.507843   -0.156761    3.172446
  (g-gl).g = 0.157E+00      g.g   = 0.157E+00  gl.gl    = 0.000E+00
 g(Force)  = 0.157E+00   g(Stress)= 0.000E+00 ortho     = 0.000E+00
 gamma     =   0.00000
 trial     =   1.00000
 opt step  =   0.07665  (harmonic =   0.04709) maximal distance =0.00471344
 next E    =   -16.526779   (d E  =  -0.00611)


--------------------------------------------------------------------------------------------------------


    WAVPRE:  cpu time    0.15: real time    0.16
    FEWALD:  cpu time    0.00: real time    0.00
    ORTHCH:  cpu time    0.03: real time    0.03
     LOOP+:  cpu time   41.12: real time   41.30


----------------------------------------- Iteration    3(   1)  ---------------------------------------


    POTLOK:  cpu time    4.00: real time    4.00
    SETDIJ:  cpu time    0.04: real time    0.04
     EDDAV:  cpu time    1.13: real time    1.13
       DOS:  cpu time    0.00: real time    0.00
    CHARGE:  cpu time    0.47: real time    0.47
    MIXING:  cpu time    0.09: real time    0.09
    --------------------------------------------
      LOOP:  cpu time    5.73: real time    5.74

 eigenvalue-minimisations  :    28
 total energy-change (2. order) :-0.1430154E+01  (-0.3547012E+01)
 number of electron      10.0000026 magnetization       0.0000008
 augmentation part        0.3485047 magnetization       0.0000017

 Broyden mixing:
  rms(total) = 0.23923E+00    rms(broyden)= 0.23636E+00
  rms(prec ) = 0.29058E+00
  weight for this iteration     100.00

 Free energy of the ion-electron system (eV)
  ---------------------------------------------------
  alpha Z        PSCENC =         0.43050678
  Ewald energy   TEWEN  =       117.94716147
  -1/2 Hartree   DENC   =      -560.36610145
  -exchange  EXHF       =         0.00000000
  -V(xc)+E(xc)   XCENC  =        39.98298024
  PAW double counting   =       349.24236176     -352.68179669
  entropy T*S    EENTRO =         0.00000000
  eigenvalues    EBANDS =      -139.87227533
  atomic energy  EATOM  =       528.64248996
  ---------------------------------------------------
  free energy    TOTEN  =       -16.67467325 eV

  energy without entropy =      -16.67467325  energy(sigma->0) =      -16.67467325


--------------------------------------------------------------------------------------------------------




----------------------------------------- Iteration    3(   2)  ---------------------------------------


    POTLOK:  cpu time    4.06: real time    4.06
    SETDIJ:  cpu time    0.04: real time    0.04
     EDDAV:  cpu time    1.51: real time    1.51
       DOS:  cpu time    0.00: real time    0.00
    CHARGE:  cpu time    0.47: real time    0.47
    MIXING:  cpu time    0.08: real time    0.09
    --------------------------------------------
      LOOP:  cpu time    6.16: real time    6.16

 eigenvalue-minimisations  :    42
 total energy-change (2. order) : 0.1267686E+00  (-0.4371262E-01)
 number of electron      10.0000025 magnetization       0.0000002
 augmentation part        0.3509424 magnetization      -0.0000009

 Broyden mixing:
  rms(total) = 0.11514E+00    rms(broyden)= 0.11491E+00
  rms(prec ) = 0.13769E+00
  weight for this iteration     100.00

 eigenvalues of (default mixing * dielectric matrix)
  average eigenvalue GAMMA=   1.7441
  1.7441

 Free energy of the ion-electron system (eV)
  ---------------------------------------------------
  alpha Z        PSCENC =         0.43050678
  Ewald energy   TEWEN  =       117.94716147
  -1/2 Hartree   DENC   =      -554.88133626
  -exchange  EXHF       =         0.00000000
  -V(xc)+E(xc)   XCENC  =        39.66901691
  PAW double counting   =       327.67063094     -330.95905016
  entropy T*S    EENTRO =         0.00000000
  eigenvalues    EBANDS =      -145.06732428
  atomic energy  EATOM  =       528.64248996
  ---------------------------------------------------
  free energy    TOTEN  =       -16.54790462 eV

  energy without entropy =      -16.54790462  energy(sigma->0) =      -16.54790462


--------------------------------------------------------------------------------------------------------




----------------------------------------- Iteration    3(   3)  ---------------------------------------


    POTLOK:  cpu time    4.05: real time    4.05
    SETDIJ:  cpu time    0.04: real time    0.04
     EDDAV:  cpu time    1.60: real time    1.60
       DOS:  cpu time    0.00: real time    0.00
    CHARGE:  cpu time    0.46: real time    0.46
    MIXING:  cpu time    0.09: real time    0.09
    --------------------------------------------
      LOOP:  cpu time    6.24: real time    6.26

 eigenvalue-minimisations  :    42
 total energy-change (2. order) : 0.2368255E-01  (-0.1752043E-01)
 number of electron      10.0000025 magnetization       0.0000001
 augmentation part        0.3586941 magnetization       0.0000023

 Broyden mixing:
  rms(total) = 0.23536E-01    rms(broyden)= 0.23428E-01
  rms(prec ) = 0.27869E-01
  weight for this iteration     100.00

 eigenvalues of (default mixing * dielectric matrix)
  average eigenvalue GAMMA=   1.5237
  1.5237  1.5237

 Free energy of the ion-electron system (eV)
  ---------------------------------------------------
  alpha Z        PSCENC =         0.43050678
  Ewald energy   TEWEN  =       117.94716147
  -1/2 Hartree   DENC   =      -550.92283508
  -exchange  EXHF       =         0.00000000
  -V(xc)+E(xc)   XCENC  =        39.44729124
  PAW double counting   =       309.39191300     -312.53261166
  entropy T*S    EENTRO =         0.00000000
  eigenvalues    EBANDS =      -148.92813779
  atomic energy  EATOM  =       528.64248996
  ---------------------------------------------------
  free energy    TOTEN  =       -16.52422207 eV

  energy without entropy =      -16.52422207  energy(sigma->0) =      -16.52422207


--------------------------------------------------------------------------------------------------------




----------------------------------------- Iteration    3(   4)  ---------------------------------------


    POTLOK:  cpu time    4.01: real time    4.01
    SETDIJ:  cpu time    0.04: real time    0.04
     EDDAV:  cpu time    1.17: real time    1.17
       DOS:  cpu time    0.00: real time    0.00
    CHARGE:  cpu time    0.48: real time    0.48
    MIXING:  cpu time    0.10: real time    0.10
    --------------------------------------------
      LOOP:  cpu time    5.80: real time    5.82

 eigenvalue-minimisations  :    28
 total energy-change (2. order) :-0.8958186E-03  (-0.4904832E-03)
 number of electron      10.0000025 magnetization       0.0000000
 augmentation part        0.3581616 magnetization      -0.0000017

 Broyden mixing:
  rms(total) = 0.12858E-01    rms(broyden)= 0.12841E-01
  rms(prec ) = 0.14318E-01
  weight for this iteration     100.00

 eigenvalues of (default mixing * dielectric matrix)
  average eigenvalue GAMMA=   1.7226
  2.6032  1.1031  1.4615

 Free energy of the ion-electron system (eV)
  ---------------------------------------------------
  alpha Z        PSCENC =         0.43050678
  Ewald energy   TEWEN  =       117.94716147
  -1/2 Hartree   DENC   =      -551.61892819
  -exchange  EXHF       =         0.00000000
  -V(xc)+E(xc)   XCENC  =        39.48802018
  PAW double counting   =       308.58059557     -311.70968240
  entropy T*S    EENTRO =         0.00000000
  eigenvalues    EBANDS =      -148.28528128
  atomic energy  EATOM  =       528.64248996
  ---------------------------------------------------
  free energy    TOTEN  =       -16.52511789 eV

  energy without entropy =      -16.52511789  energy(sigma->0) =      -16.52511789


--------------------------------------------------------------------------------------------------------




----------------------------------------- Iteration    3(   5)  ---------------------------------------


    POTLOK:  cpu time    4.02: real time    4.03
    SETDIJ:  cpu time    0.04: real time    0.04
     EDDAV:  cpu time    1.54: real time    1.54
       DOS:  cpu time    0.00: real time    0.00
    CHARGE:  cpu time    0.47: real time    0.47
    MIXING:  cpu time    0.10: real time    0.10
    --------------------------------------------
      LOOP:  cpu time    6.19: real time    6.22

 eigenvalue-minimisations  :    42
 total energy-change (2. order) :-0.1179273E-02  (-0.4765493E-04)
 number of electron      10.0000025 magnetization       0.0000000
 augmentation part        0.3583703 magnetization       0.0000033

 Broyden mixing:
  rms(total) = 0.13566E-02    rms(broyden)= 0.13499E-02
  rms(prec ) = 0.21483E-02
  weight for this iteration     100.00

 eigenvalues of (default mixing * dielectric matrix)
  average eigenvalue GAMMA=   1.5381
  2.5738  1.3465  1.3465  0.8856

 Free energy of the ion-electron system (eV)
  ---------------------------------------------------
  alpha Z        PSCENC =         0.43050678
  Ewald energy   TEWEN  =       117.94716147
  -1/2 Hartree   DENC   =      -551.54619729
  -exchange  EXHF       =         0.00000000
  -V(xc)+E(xc)   XCENC  =        39.48641279
  PAW double counting   =       305.40695067     -308.50739806
  entropy T*S    EENTRO =         0.00000000
  eigenvalues    EBANDS =      -148.38622349
  atomic energy  EATOM  =       528.64248996
  ---------------------------------------------------
  free energy    TOTEN  =       -16.52629717 eV

  energy without entropy =      -16.52629717  energy(sigma->0) =      -16.52629717


--------------------------------------------------------------------------------------------------------




----------------------------------------- Iteration    3(   6)  ---------------------------------------


    POTLOK:  cpu time    4.01: real time    4.01
    SETDIJ:  cpu time    0.04: real time    0.04
     EDDAV:  cpu time    0.72: real time    0.72
       DOS:  cpu time    0.00: real time    0.00
    --------------------------------------------
      LOOP:  cpu time    4.78: real time    4.82

 eigenvalue-minimisations  :    14
 total energy-change (2. order) :-0.3197540E-04  (-0.2203851E-05)
 number of electron      10.0000025 magnetization       0.0000000
 augmentation part        0.3583703 magnetization       0.0000033

 Free energy of the ion-electron system (eV)
  ---------------------------------------------------
  alpha Z        PSCENC =         0.43050678
  Ewald energy   TEWEN  =       117.94716147
  -1/2 Hartree   DENC   =      -551.51949564
  -exchange  EXHF       =         0.00000000
  -V(xc)+E(xc)   XCENC  =        39.48490170
  PAW double counting   =       305.45630331     -308.55752750
  entropy T*S    EENTRO =         0.00000000
  eigenvalues    EBANDS =      -148.41066924
  atomic energy  EATOM  =       528.64248996
  ---------------------------------------------------
  free energy    TOTEN  =       -16.52632914 eV

  energy without entropy =      -16.52632914  energy(sigma->0) =      -16.52632914


--------------------------------------------------------------------------------------------------------




 average (electrostatic) potential at core
  the test charge radii are     0.7089
  (the norm of the test charge is              1.0000)
       1 -76.1556       2 -76.1556
 
 
 
 E-fermi :  -9.0372     XC(G=0):  -0.5561     alpha+bet : -0.1738


 spin component 1

 k-point   1 :       0.0000    0.0000    0.0000
  band No.  band energies     occupation 
      1     -28.0080      1.00000
      2     -13.5004      1.00000
      3     -11.3542      1.00000
      4     -11.3542      1.00000
      5      -9.9886      1.00000
      6      -2.0508      0.00000
      7      -2.0508      0.00000

 spin component 2

 k-point   1 :       0.0000    0.0000    0.0000
  band No.  band energies     occupation 
      1     -28.0079      1.00000
      2     -13.5003      1.00000
      3     -11.3543      1.00000
      4     -11.3543      1.00000
      5      -9.9886      1.00000
      6      -2.0509      0.00000
      7      -2.0509      0.00000


--------------------------------------------------------------------------------------------------------


 soft charge-density along one line, spin component           1
         0         1         2         3         4         5         6         7         8         9
 total charge-density along one line
 
 soft charge-density along one line, spin component           2
         0         1         2         3         4         5         6         7         8         9
 total charge-density along one line
 
 pseudopotential strength for first ion, spin component:           1
 14.225   0.083   0.000   0.015   0.000   0.000   0.025   0.000
  0.083   0.006   0.000   0.001   0.000   0.000   0.000   0.000
  0.000   0.000  -7.566   0.000   0.000  -0.199   0.000   0.000
  0.015   0.001   0.000  -7.626   0.000   0.000  -0.218   0.000
  0.000   0.000   0.000   0.000  -7.566   0.000   0.000  -0.199
  0.000   0.000  -0.199   0.000   0.000   0.860   0.000   0.000
  0.025   0.000   0.000  -0.218   0.000   0.000   0.860   0.000
  0.000   0.000   0.000   0.000  -0.199   0.000   0.000   0.860
 pseudopotential strength for first ion, spin component:           2
 14.225   0.083   0.000   0.015   0.000   0.000   0.025   0.000
  0.083   0.006   0.000   0.001   0.000   0.000   0.000   0.000
  0.000   0.000  -7.566   0.000   0.000  -0.199   0.000   0.000
  0.015   0.001   0.000  -7.626   0.000   0.000  -0.218   0.000
  0.000   0.000   0.000   0.000  -7.566   0.000   0.000  -0.199
  0.000   0.000  -0.199   0.000   0.000   0.860   0.000   0.000
  0.025   0.000   0.000  -0.218   0.000   0.000   0.860   0.000
  0.000   0.000   0.000   0.000  -0.199   0.000   0.000   0.860
 total augmentation occupancy for first ion, spin component:           1
  1.907  -0.683   0.000   0.123   0.000   0.000   0.102   0.000
 -0.683   0.877   0.000   0.739   0.000   0.000  -0.288   0.000
  0.000   0.000   1.031   0.000   0.000  -0.120   0.000   0.000
  0.123   0.739   0.000   1.660   0.000   0.000  -0.213   0.000
  0.000   0.000   0.000   0.000   1.031   0.000   0.000  -0.120
  0.000   0.000  -0.120   0.000   0.000   0.014   0.000   0.000
  0.102  -0.288   0.000  -0.213   0.000   0.000   0.118   0.000
  0.000   0.000   0.000   0.000  -0.120   0.000   0.000   0.014
 total augmentation occupancy for first ion, spin component:           2
  0.000   0.000   0.000   0.000   0.000   0.000   0.000   0.000
  0.000   0.000   0.000   0.000   0.000   0.000   0.000   0.000
  0.000   0.000   0.000   0.000   0.000   0.000   0.000   0.000
  0.000   0.000   0.000   0.000   0.000   0.000   0.000   0.000
  0.000   0.000   0.000   0.000   0.000   0.000   0.000   0.000
  0.000   0.000   0.000   0.000   0.000   0.000   0.000   0.000
  0.000   0.000   0.000   0.000   0.000   0.000   0.000   0.000
  0.000   0.000   0.000   0.000   0.000   0.000   0.000   0.000


------------------------ aborting loop because EDIFF is reached ----------------------------------------


    CHARGE:  cpu time    0.46: real time    0.46
    FORLOC:  cpu time    0.07: real time    0.07
    FORNL :  cpu time    0.21: real time    0.22
    STRESS:  cpu time    0.57: real time    0.57
    FORHAR:  cpu time    0.49: real time    0.49
    MIXING:  cpu time    0.10: real time    0.10

  FORCE on cell =-STRESS in cart. coord.  units (eV):
  Direction    XX          YY          ZZ          XY          YZ          ZX
  --------------------------------------------------------------------------------------
  Alpha Z     0.43051     0.43051     0.43051
  Ewald     -68.56118   -68.56118   255.06947     0.00000     0.00000     0.00000
  Hartree   144.18730   144.18730   263.07603     0.00000     0.00000     0.00000
  E(xc)     -42.04820   -42.04820   -40.78735     0.00000     0.00000     0.00000
  Local    -215.11834  -215.11834  -629.67435     0.00000     0.00000     0.00000
  n-local   -15.55775   -15.55775   -27.68783     0.00000     0.00000     0.00000
  augment     1.34201     1.34201     1.68963     0.00000     0.00000     0.00000
  Kinetic   192.76158   192.76158   174.64567     0.00000     0.00000     0.00000
  Fock        0.00000     0.00000     0.00000     0.00000     0.00000     0.00000
  -------------------------------------------------------------------------------------
  Total      -2.56407    -2.56407    -3.23821     0.00000     0.00000     0.00000
  in kB      -4.10810    -4.10810    -5.18819     0.00000     0.00000     0.00000
  external pressure =       -4.47 kB  Pullay stress =        0.00 kB


 VOLUME and BASIS-vectors are now :
 -----------------------------------------------------------------------------
  energy-cutoff  :      350.00
  volume of cell :     1000.00
      direct lattice vectors                 reciprocal lattice vectors
    10.000000000  0.000000000  0.000000000     0.100000000  0.000000000  0.000000000
     0.000000000 10.000000000  0.000000000     0.000000000  0.100000000  0.000000000
     0.000000000  0.000000000 10.000000000     0.000000000  0.000000000  0.100000000

  length of vectors
    10.000000000 10.000000000 10.000000000     0.100000000  0.100000000  0.100000000


 FORCES acting on ions
    electron-ion (+dipol)            ewald-force                    non-local-force                 convergence-correction
 -----------------------------------------------------------------------------------------------
   0.242E-12 0.114E-12 -.240E+03   -.357E-16 -.139E-16 0.285E+03   -.775E-25 -.258E-25 -.445E+02   -.771E-13 -.121E-12 0.301E-01
   0.238E-12 -.106E-12 0.240E+03   -.241E-16 -.101E-16 -.285E+03   0.258E-25 -.775E-25 0.445E+02   -.841E-13 -.135E-12 -.301E-01
 -----------------------------------------------------------------------------------------------
   0.480E-12 0.811E-14 -.227E-12   -.598E-16 -.240E-16 0.000E+00   -.517E-25 -.103E-24 -.711E-14   -.161E-12 -.257E-12 0.283E-13
 
 
 POSITION                                       TOTAL-FORCE (eV/Angst)
 -----------------------------------------------------------------------------------
      5.00000      5.00000      5.56028         0.000000      0.000000      0.060234
      5.00000      5.00000      4.43972         0.000000      0.000000     -0.060234
 -----------------------------------------------------------------------------------
    total drift:                                0.000000      0.000000      0.000000


--------------------------------------------------------------------------------------------------------



  FREE ENERGIE OF THE ION-ELECTRON SYSTEM (eV)
  ---------------------------------------------------
  free  energy   TOTEN  =       -16.526329 eV

  energy  without entropy=      -16.526329  energy(sigma->0) =      -16.526329
 
 d Force = 0.1468057E+01[ 0.684E-02, 0.293E+01]  d Energy = 0.1281725E+01 0.186E+00
 d Force = 0.3624724E+02[ 0.324E+02, 0.401E+02]  d Ewald  = 0.3604026E+02 0.207E+00


--------------------------------------------------------------------------------------------------------


    POTLOK:  cpu time    4.01: real time    4.01


--------------------------------------------------------------------------------------------------------




--------------------------------------------------------------------------------------------------------


  
 reached required accuracy - stopping structural energy minimisation
 writing wavefunctions
     LOOP+:  cpu time   40.87: real time   41.19
    4ORBIT:  cpu time    0.00: real time    0.00

 total amount of memory used by VASP on root node   139139. kBytes
========================================================================

   base      :      30000. kBytes
   nonl-proj :       1420. kBytes
   fftplans  :      30736. kBytes
   grid      :      73654. kBytes
   one-center:         12. kBytes
   wavefun   :       3317. kBytes
 
  
  
 General timing and accounting informations for this job:
 ========================================================
  
                  Total CPU time used (sec):      175.253
                            User time (sec):      172.941
                          System time (sec):        2.313
                         Elapsed time (sec):      177.659
  
                   Maximum memory used (kb):           0.
                   Average memory used (kb):           0.
  
                          Minor page faults:       706446
                          Major page faults:            0
                 Voluntary context switches:        12923
