<?xml version="1.0" encoding="ISO-8859-1"?>
<modeling>
 <generator>
  <i name="program" type="string">vasp </i>
  <i name="version" type="string">5.2.12  </i>
  <i name="subversion" type="string">11Nov11 complex                                                      parallel </i>
  <i name="platform" type="string">LinuxIFC </i>
  <i name="date" type="string">2012 10 31 </i>
  <i name="time" type="string">12:22:06 </i>
 </generator>
 <incar>
  <i type="string" name="PREC">normal</i>
  <i type="int" name="ISPIN">     2</i>
  <i type="int" name="IBRION">     2</i>
  <i type="int" name="NSW">    10</i>
  <i name="ENCUT">    350.00000000</i>
  <i type="int" name="NBANDS">     7</i>
  <i type="int" name="ISMEAR">     0</i>
 </incar>
 <kpoints>
  <generation param="Monkhorst-Pack">
   <v type="int" name="divisions">       1        1        1 </v>
   <v name="usershift">      0.00000000       0.00000000       0.00000000 </v>
   <v name="genvec1">      1.00000000       0.00000000       0.00000000 </v>
   <v name="genvec2">      0.00000000       1.00000000       0.00000000 </v>
   <v name="genvec3">      0.00000000       0.00000000       1.00000000 </v>
   <v name="shift">      0.00000000       0.00000000       0.00000000 </v>
  </generation>
  <varray name="kpointlist" >
   <v>       0.00000000       0.00000000       0.00000000 </v>
  </varray>
  <varray name="weights" >
   <v>       1.00000000 </v>
  </varray>
 </kpoints>
 <parameters>
  <separator name="general" >
   <i type="string" name="SYSTEM">unknown system</i>
   <i type="logical" name="LCOMPAT"> F  </i>
  </separator>
  <separator name="electronic" >
   <i type="string" name="PREC">normal</i>
   <i name="ENMAX">    350.00000000</i>
   <i name="ENAUG">    627.11200000</i>
   <i name="EDIFF">      0.00010000</i>
   <i type="int" name="IALGO">    38</i>
   <i type="int" name="IWAVPR">    11</i>
   <i type="int" name="NBANDS">     7</i>
   <i name="NELECT">     10.00000000</i>
   <i type="int" name="TURBO">     0</i>
   <i type="int" name="IRESTART">     0</i>
   <i type="int" name="NREBOOT">     0</i>
   <i type="int" name="NMIN">     0</i>
   <i name="EREF">      0.00000000</i>
   <separator name="electronic smearing" >
    <i type="int" name="ISMEAR">     0</i>
    <i name="SIGMA">      0.20000000</i>
    <i name="KSPACING">      0.50000000</i>
    <i type="logical" name="KGAMMA"> T  </i>
   </separator>
   <separator name="electronic projectors" >
    <i type="logical" name="LREAL"> F  </i>
    <v name="ROPT">      0.00000000</v>
    <i type="int" name="LMAXPAW">  -100</i>
    <i type="int" name="LMAXMIX">     2</i>
    <i type="logical" name="NLSPLINE"> F  </i>
   </separator>
   <separator name="electronic startup" >
    <i type="int" name="ISTART">     0</i>
    <i type="int" name="ICHARG">     2</i>
    <i type="int" name="INIWAV">     1</i>
   </separator>
   <separator name="electronic spin" >
    <i type="int" name="ISPIN">     2</i>
    <i type="logical" name="LNONCOLLINEAR"> F  </i>
    <v name="MAGMOM">      1.00000000      1.00000000</v>
    <i name="NUPDOWN">     -1.00000000</i>
    <i type="logical" name="LSORBIT"> F  </i>
    <v name="SAXIS">      0.00000000      0.00000000      1.00000000</v>
    <i type="logical" name="LSPIRAL"> F  </i>
    <v name="QSPIRAL">      0.00000000      0.00000000      0.00000000</v>
    <i type="logical" name="LZEROZ"> F  </i>
   </separator>
   <separator name="electronic exchange-correlation" >
    <i type="logical" name="LASPH"> F  </i>
    <i type="logical" name="LMETAGGA"> F  </i>
   </separator>
   <separator name="electronic convergence" >
    <i type="int" name="NELM">    60</i>
    <i type="int" name="NELMDL">    -5</i>
    <i type="int" name="NELMIN">     2</i>
    <i name="ENINI">    350.00000000</i>
    <separator name="electronic convergence detail" >
     <i type="logical" name="LDIAG"> T  </i>
     <i type="logical" name="LSUBROT"> T  </i>
     <i name="WEIMIN">      0.00100000</i>
     <i name="EBREAK">      0.00000357</i>
     <i name="DEPER">      0.30000000</i>
     <i type="int" name="NRMM">     4</i>
     <i name="TIME">      0.40000000</i>
    </separator>
   </separator>
   <separator name="electronic mixer" >
    <i name="AMIX">      0.40000000</i>
    <i name="BMIX">      1.00000000</i>
    <i name="AMIN">      0.10000000</i>
    <i name="AMIX_MAG">      1.60000000</i>
    <i name="BMIX_MAG">      1.00000000</i>
    <separator name="electronic mixer details" >
     <i type="int" name="IMIX">     4</i>
     <i type="int" name="MAXMIX">   -45</i>
     <i name="WC">    100.00000000</i>
     <i type="int" name="INIMIX">     1</i>
     <i type="int" name="MIXPRE">     1</i>
     <i type="int" name="MREMOVE">     5</i>
    </separator>
   </separator>
   <separator name="electronic dipolcorrection" >
    <i type="logical" name="LDIPOL"> F  </i>
    <i type="logical" name="LMONO"> F  </i>
    <i type="int" name="IDIPOL">     0</i>
    <i name="EPSILON">      1.00000000</i>
    <v name="DIPOL">   -100.00000000   -100.00000000   -100.00000000</v>
    <i name="EFIELD">      0.00000000</i>
   </separator>
  </separator>
  <separator name="grids" >
   <i type="int" name="NGX">    48</i>
   <i type="int" name="NGY">    48</i>
   <i type="int" name="NGZ">    48</i>
   <i type="int" name="NGXF">    96</i>
   <i type="int" name="NGYF">    96</i>
   <i type="int" name="NGZF">    96</i>
   <i type="logical" name="ADDGRID"> F  </i>
  </separator>
  <separator name="ionic" >
   <i type="int" name="NSW">    10</i>
   <i type="int" name="IBRION">     2</i>
   <i type="int" name="ISIF">     2</i>
   <i name="PSTRESS">      0.00000000</i>
   <i name="EDIFFG">      0.00100000</i>
   <i type="int" name="NFREE">     1</i>
   <i name="POTIM">      0.50000000</i>
   <i name="SMASS">     -3.00000000</i>
   <i name="SCALEE">      1.00000000</i>
  </separator>
  <separator name="ionic md" >
   <i name="TEBEG">      0.00010000</i>
   <i name="TEEND">      0.00010000</i>
   <i type="int" name="NBLOCK">     1</i>
   <i type="int" name="KBLOCK">    10</i>
   <i type="int" name="NPACO">   256</i>
   <i name="APACO">     16.00000000</i>
  </separator>
  <separator name="symmetry" >
   <i type="int" name="ISYM">     2</i>
   <i name="SYMPREC">      0.00001000</i>
  </separator>
  <separator name="dos" >
   <i type="logical" name="LORBIT"> F  </i>
   <v name="RWIGS">     -1.00000000</v>
   <i type="int" name="NEDOS">   301</i>
   <i name="EMIN">     10.00000000</i>
   <i name="EMAX">    -10.00000000</i>
   <i name="EFERMI">      0.00000000</i>
  </separator>
  <separator name="writing" >
   <i type="int" name="NWRITE">     2</i>
   <i type="logical" name="LWAVE"> T  </i>
   <i type="logical" name="LCHARG"> T  </i>
   <i type="logical" name="LPARD"> F  </i>
   <i type="logical" name="LVTOT"> F  </i>
   <i type="logical" name="LVHAR"> F  </i>
   <i type="logical" name="LELF"> F  </i>
   <i type="logical" name="LOPTICS"> F  </i>
   <v name="STM">      0.00000000      0.00000000      0.00000000      0.00000000      0.00000000      0.00000000      0.00000000</v>
  </separator>
  <separator name="performance" >
   <i type="int" name="NPAR">     1</i>
   <i type="int" name="NSIM">     4</i>
   <i type="int" name="NBLK">    -1</i>
   <i type="logical" name="LPLANE"> T  </i>
   <i type="logical" name="LSCALAPACK"> F  </i>
   <i type="logical" name="LSCAAWARE"> F  </i>
   <i type="logical" name="LSCALU"> F  </i>
   <i type="logical" name="LASYNC"> F  </i>
   <i type="logical" name="LORBITALREAL"> F  </i>
  </separator>
  <separator name="miscellaneous" >
   <i type="int" name="IDIOT">     3</i>
   <i type="logical" name="LMUSIC"> F  </i>
   <v name="POMASS">     14.00100000</v>
   <v name="DARWINR">      0.00000000</v>
   <v name="DARWINV">      1.00000000</v>
   <i type="logical" name="LCORR"> T  </i>
  </separator>
  <i type="logical" name="GGA_COMPAT"> T  </i>
  <i type="logical" name="LBERRY"> F  </i>
  <i type="int" name="ICORELEVEL">     0</i>
  <i type="logical" name="LDAU"> F  </i>
  <i type="int" name="I_CONSTRAINED_M">     0</i>
  <separator name="electronic exchange-correlation" >
   <i type="string" name="GGA">--</i>
   <i type="int" name="VOSKOWN">     0</i>
   <i type="logical" name="LHFCALC"> F  </i>
   <i type="string" name="PRECFOCK"></i>
   <i type="logical" name="LHFONE"> F  </i>
   <i type="logical" name="LRHFCALC"> F  </i>
   <i type="logical" name="LTHOMAS"> F  </i>
   <i type="logical" name="LMODELHF"> F  </i>
   <i name="ENCUT4O">     -1.00000000</i>
   <i type="int" name="EXXOEP">     0</i>
   <i type="int" name="FOURORBIT">     0</i>
   <i name="AEXX">      0.00000000</i>
   <i name="HFALPHA">      0.00000000</i>
   <i name="ALDAX">      1.00000000</i>
   <i name="AGGAX">      1.00000000</i>
   <i name="ALDAC">      1.00000000</i>
   <i name="AGGAC">      1.00000000</i>
   <i type="int" name="NKREDX">     1</i>
   <i type="int" name="NKREDY">     1</i>
   <i type="int" name="NKREDZ">     1</i>
   <i type="logical" name="SHIFTRED"> F  </i>
   <i type="logical" name="ODDONLY"> F  </i>
   <i type="logical" name="EVENONLY"> F  </i>
   <i type="int" name="LMAXFOCK">     0</i>
   <i type="int" name="NMAXFOCKAE">     0</i>
   <i type="logical" name="LFOCKAEDFT"> F  </i>
   <i name="HFSCREEN">      0.00000000</i>
   <i name="HFSCREENC">      0.00000000</i>
  </separator>
  <separator name="vdW DFT" >
   <i type="logical" name="LUSE_VDW"> F  </i>
   <i name="Zab_VDW">     -0.84910000</i>
   <i name="PARAM1">      0.12340000</i>
   <i name="PARAM2">      1.00000000</i>
   <i name="PARAM3">      0.00000000</i>
  </separator>
  <separator name="model GW" >
   <i type="int" name="MODEL_GW">     0</i>
   <i name="MODEL_EPS0">    300.00000000</i>
   <i name="MODEL_ALPHA">      1.00000000</i>
  </separator>
  <separator name="linear response parameters" >
   <i type="logical" name="LEPSILON"> F  </i>
   <i type="logical" name="LRPA"> F  </i>
   <i type="logical" name="LNABLA"> F  </i>
   <i type="logical" name="LVEL"> F  </i>
   <i type="int" name="KINTER">     0</i>
   <i name="CSHIFT">      0.10000000</i>
   <i name="OMEGAMAX">     -1.00000000</i>
  </separator>
  <separator name="orbital magnetization" >
   <i type="logical" name="NUCIND"> F  </i>
   <v name="MAGPOS">      0.00000000      0.00000000      0.00000000</v>
   <i type="logical" name="LNICSALL"> T  </i>
   <i type="logical" name="ORBITALMAG"> F  </i>
   <i type="logical" name="LMAGBLOCH"> F  </i>
   <i type="logical" name="LCHIMAG"> F  </i>
   <i type="logical" name="LGAUGE"> T  </i>
   <i type="int" name="MAGATOM">     0</i>
   <v name="MAGDIPOL">      0.00000000      0.00000000      0.00000000</v>
   <v name="AVECCONST">      0.00000000      0.00000000      0.00000000</v>
  </separator>
  <separator name="response functions" >
   <i type="logical" name="LADDER"> F  </i>
   <i type="logical" name="LHARTREE"> T  </i>
   <i type="int" name="IBSE">     0</i>
   <i type="logical" name="LTCTE"> F  </i>
   <i type="logical" name="LTETE"> F  </i>
   <i type="logical" name="LFXCEPS"> F  </i>
   <i type="logical" name="L2ORDER"> F  </i>
   <i type="logical" name="LUSEW"> F  </i>
   <i name="ENCUTGW">     -2.00000000</i>
   <i name="ENCUTGWSOFT">     -2.00000000</i>
   <i name="ENCUTLF">     -1.00000000</i>
   <i type="int" name="LMAXMP2">    -1</i>
   <i name="SCISSOR">      0.00000000</i>
   <i type="int" name="NOMEGA">     0</i>
   <i type="int" name="NOMEGAR">     0</i>
   <i type="int" name="NBANDSGW">    -1</i>
   <i type="int" name="NBANDSO">    -1</i>
   <i type="int" name="NBANDSV">    -1</i>
   <i name="OPTEMAX">      0.00000000</i>
   <i type="int" name="NELM">     1</i>
   <i type="int" name="DIM">     3</i>
   <i type="int" name="ANTIRES">     0</i>
   <i name="OMEGAMAX">    -30.00000000</i>
   <i name="OMEGATL">   -200.00000000</i>
   <i type="int" name="OMEGAGRID">     0</i>
   <i name="CSHIFT">     -0.10000000</i>
   <i type="logical" name="SELFENERGY"> F  </i>
   <i type="logical" name="LSPECTRAL"> F  </i>
   <i type="logical" name="ODDONLYGW"> F  </i>
   <i type="logical" name="EVENONLYGW"> F  </i>
   <i type="int" name="NKREDLFX">     1</i>
   <i type="int" name="NKREDLFY">     1</i>
   <i type="int" name="NKREDLFZ">     1</i>
   <i type="int" name="MAXMEM">  1800</i>
   <i type="int" name="TELESCOPE">     0</i>
  </separator>
 </parameters>
 <atominfo>
  <atoms>       2 </atoms>
  <types>       1 </types>
  <array name="atoms" >
   <dimension dim="1">ion</dimension>
   <field type="string">element</field>
   <field type="int">atomtype</field>
   <set>
    <rc><c>N </c><c>   1</c></rc>
    <rc><c>N </c><c>   1</c></rc>
   </set>
  </array>
  <array name="atomtypes" >
   <dimension dim="1">type</dimension>
   <field type="int">atomspertype</field>
   <field type="string">element</field>
   <field>mass</field>
   <field>valence</field>
   <field type="string">pseudopotential</field>
   <set>
    <rc><c>   2</c><c>N </c><c>     14.00100000</c><c>      5.00000000</c><c> PAW_PBE N 08Apr2002                    </c></rc>
   </set>
  </array>
 </atominfo>
 <structure name="initialpos" >
  <crystal>
   <varray name="basis" >
    <v>      10.00000000       0.00000000       0.00000000 </v>
    <v>       0.00000000      10.00000000       0.00000000 </v>
    <v>       0.00000000       0.00000000      10.00000000 </v>
   </varray>
   <i name="volume">   1000.00000000 </i>
   <varray name="rec_basis" >
    <v>       0.10000000       0.00000000       0.00000000 </v>
    <v>       0.00000000       0.10000000       0.00000000 </v>
    <v>       0.00000000       0.00000000       0.10000000 </v>
   </varray>
  </crystal>
  <varray name="positions" >
   <v>       0.50000000       0.50000000       0.55649900 </v>
   <v>       0.50000000       0.50000000       0.44350100 </v>
  </varray>
 </structure>
 <calculation>
  <scstep>
   <time name="dav">    1.29    1.29</time>
   <time name="total">    4.43    4.44</time>
   <energy>
    <i name="alphaZ">      0.43050678 </i>
    <i name="ewald">    115.28359984 </i>
    <i name="hartreedc">   -530.57216309 </i>
    <i name="XCdc">     38.58625414 </i>
    <i name="pawpsdc">    223.86051543 </i>
    <i name="pawaedc">   -226.60717556 </i>
    <i name="eentropy">     -0.00776324 </i>
    <i name="bandstr">    -81.97829123 </i>
    <i name="atom">    528.64248996 </i>
    <i name="e_fr_energy">     67.63797304 </i>
    <i name="e_wo_entrp">     67.64573628 </i>
    <i name="e_0_energy">     67.64185466 </i>
   </energy>
  </scstep>
  <scstep>
   <time name="dav">    1.46    1.46</time>
   <time name="total">    1.46    1.46</time>
   <energy>
    <i name="e_fr_energy">     -8.24260978 </i>
    <i name="e_wo_entrp">     -8.24260978 </i>
    <i name="e_0_energy">     -8.24260978 </i>
   </energy>
  </scstep>
  <scstep>
   <time name="dav">    0.93    0.93</time>
   <time name="total">    0.93    0.95</time>
   <energy>
    <i name="e_fr_energy">    -16.35196377 </i>
    <i name="e_wo_entrp">    -16.35196377 </i>
    <i name="e_0_energy">    -16.35196377 </i>
   </energy>
  </scstep>
  <scstep>
   <time name="dav">    1.45    1.45</time>
   <time name="total">    1.46    1.47</time>
   <energy>
    <i name="e_fr_energy">    -16.45483814 </i>
    <i name="e_wo_entrp">    -16.45483814 </i>
    <i name="e_0_energy">    -16.45483814 </i>
   </energy>
  </scstep>
  <scstep>
   <time name="dav">    1.45    1.45</time>
   <time name="total">    1.86    1.94</time>
   <energy>
    <i name="e_fr_energy">    -16.45508153 </i>
    <i name="e_wo_entrp">    -16.45508153 </i>
    <i name="e_0_energy">    -16.45508153 </i>
   </energy>
  </scstep>
  <scstep>
   <time name="dav">    1.11    1.11</time>
   <time name="total">    4.81    4.83</time>
   <energy>
    <i name="e_fr_energy">    -11.49087916 </i>
    <i name="e_wo_entrp">    -11.49087916 </i>
    <i name="e_0_energy">    -11.49087916 </i>
   </energy>
  </scstep>
  <scstep>
   <time name="dav">    1.12    1.12</time>
   <time name="total">    4.84    4.87</time>
   <energy>
    <i name="e_fr_energy">    -14.92790136 </i>
    <i name="e_wo_entrp">    -14.92790136 </i>
    <i name="e_0_energy">    -14.92790136 </i>
   </energy>
  </scstep>
  <scstep>
   <time name="dav">    1.11    1.11</time>
   <time name="total">    4.87    4.88</time>
   <energy>
    <i name="e_fr_energy">    -16.14789477 </i>
    <i name="e_wo_entrp">    -16.14789477 </i>
    <i name="e_0_energy">    -16.14789477 </i>
   </energy>
  </scstep>
  <scstep>
   <time name="dav">    1.12    1.12</time>
   <time name="total">    4.91    4.93</time>
   <energy>
    <i name="e_fr_energy">    -16.44246216 </i>
    <i name="e_wo_entrp">    -16.44246216 </i>
    <i name="e_0_energy">    -16.44246216 </i>
   </energy>
  </scstep>
  <scstep>
   <time name="dav">    1.30    1.30</time>
   <time name="total">    5.11    5.12</time>
   <energy>
    <i name="e_fr_energy">    -16.51147630 </i>
    <i name="e_wo_entrp">    -16.51147630 </i>
    <i name="e_0_energy">    -16.51147630 </i>
   </energy>
  </scstep>
  <scstep>
   <time name="dav">    1.29    1.29</time>
   <time name="total">    4.99    5.01</time>
   <energy>
    <i name="e_fr_energy">    -16.51558157 </i>
    <i name="e_wo_entrp">    -16.51558157 </i>
    <i name="e_0_energy">    -16.51558157 </i>
   </energy>
  </scstep>
  <scstep>
   <time name="dav">    1.12    1.12</time>
   <time name="total">    4.85    4.92</time>
   <energy>
    <i name="e_fr_energy">    -16.51789800 </i>
    <i name="e_wo_entrp">    -16.51789800 </i>
    <i name="e_0_energy">    -16.51789800 </i>
   </energy>
  </scstep>
  <scstep>
   <time name="dav">    1.29    1.29</time>
   <time name="total">    5.03    5.05</time>
   <energy>
    <i name="e_fr_energy">    -16.51880562 </i>
    <i name="e_wo_entrp">    -16.51880562 </i>
    <i name="e_0_energy">    -16.51880562 </i>
   </energy>
  </scstep>
  <scstep>
   <time name="dav">    1.32    1.32</time>
   <time name="total">    6.20    6.27</time>
   <energy>
    <i name="e_fr_energy">    -16.51970345 </i>
    <i name="e_wo_entrp">    -16.51970345 </i>
    <i name="e_0_energy">    -16.51970345 </i>
   </energy>
  </scstep>
  <scstep>
   <time name="dav">    1.86    1.86</time>
   <time name="total">    6.78    6.80</time>
   <energy>
    <i name="e_fr_energy">    -16.52020922 </i>
    <i name="e_wo_entrp">    -16.52020922 </i>
    <i name="e_0_energy">    -16.52020922 </i>
   </energy>
  </scstep>
  <scstep>
   <time name="dav">    1.01    1.01</time>
   <time name="total">    5.82    5.89</time>
   <energy>
    <i name="e_fr_energy">    -16.52041459 </i>
    <i name="e_wo_entrp">    -16.52041459 </i>
    <i name="e_0_energy">    -16.52041459 </i>
   </energy>
  </scstep>
  <scstep>
   <time name="dav">    0.95    0.95</time>
   <time name="total">    5.46    5.68</time>
   <energy>
    <i name="e_fr_energy">    -16.52058975 </i>
    <i name="e_wo_entrp">    -16.52058975 </i>
    <i name="e_0_energy">    -16.52058975 </i>
   </energy>
  </scstep>
  <scstep>
   <time name="dav">    0.78    0.78</time>
   <time name="total">    4.94    4.96</time>
   <energy>
    <i name="alphaZ">      0.43050678 </i>
    <i name="ewald">    115.28359984 </i>
    <i name="hartreedc">   -549.19757273 </i>
    <i name="XCdc">     39.39788180 </i>
    <i name="pawpsdc">    302.58474874 </i>
    <i name="pawaedc">   -305.66588178 </i>
    <i name="eentropy">      0.00000000 </i>
    <i name="bandstr">   -147.99643929 </i>
    <i name="atom">    528.64248996 </i>
    <i name="e_fr_energy">    -16.52066668 </i>
    <i name="e_wo_entrp">    -16.52066668 </i>
    <i name="e_0_energy">    -16.52066668 </i>
   </energy>
  </scstep>
  <parameters_embedded>
   <separator name="dft+d2" >
    <i type="logical" name="LVDW"> F  </i>
   </separator>
  </parameters_embedded>
  <structure>
   <crystal>
    <varray name="basis" >
     <v>      10.00000000       0.00000000       0.00000000 </v>
     <v>       0.00000000      10.00000000       0.00000000 </v>
     <v>       0.00000000       0.00000000      10.00000000 </v>
    </varray>
    <i name="volume">   1000.00000000 </i>
    <varray name="rec_basis" >
     <v>       0.10000000       0.00000000       0.00000000 </v>
     <v>       0.00000000       0.10000000       0.00000000 </v>
     <v>       0.00000000       0.00000000       0.10000000 </v>
    </varray>
   </crystal>
   <varray name="positions" >
    <v>       0.50000000       0.50000000       0.55649900 </v>
    <v>       0.50000000       0.50000000       0.44350100 </v>
   </varray>
  </structure>
  <varray name="forces" >
   <v>       0.00000000       0.00000000      -1.27464213 </v>
   <v>       0.00000000       0.00000000       1.27464213 </v>
  </varray>
  <varray name="stress" >
   <v>      -4.09529155       0.00000000       0.00000000 </v>
   <v>       0.00000000      -4.09529155       0.00000000 </v>
   <v>       0.00000000       0.00000000      -7.54726570 </v>
  </varray>
  <energy>
   <i name="e_fr_energy">    -16.52066668 </i>
   <i name="e_wo_entrp">    -16.52066668 </i>
   <i name="e_0_energy">      0.00000000 </i>
  </energy>
  <time name="totalsc">   88.58   89.75</time>
 </calculation>
 <calculation>
  <scstep>
   <time name="dav">    1.20    1.20</time>
   <time name="total">    5.88    5.88</time>
   <energy>
    <i name="alphaZ">      0.43050678 </i>
    <i name="ewald">    153.98742247 </i>
    <i name="hartreedc">   -570.82301426 </i>
    <i name="XCdc">     40.07826803 </i>
    <i name="pawpsdc">    302.58445788 </i>
    <i name="pawaedc">   -305.66553507 </i>
    <i name="eentropy">      0.00000000 </i>
    <i name="bandstr">   -164.62880053 </i>
    <i name="atom">    528.64248996 </i>
    <i name="e_fr_energy">    -15.39420473 </i>
    <i name="e_wo_entrp">    -15.39420473 </i>
    <i name="e_0_energy">    -15.39420473 </i>
   </energy>
  </scstep>
  <scstep>
   <time name="dav">    1.07    1.07</time>
   <time name="total">    5.70    5.71</time>
   <energy>
    <i name="e_fr_energy">    -15.28308637 </i>
    <i name="e_wo_entrp">    -15.28308637 </i>
    <i name="e_0_energy">    -15.28308637 </i>
   </energy>
  </scstep>
  <scstep>
   <time name="dav">    1.41    1.41</time>
   <time name="total">    5.65    5.70</time>
   <energy>
    <i name="e_fr_energy">    -15.24777661 </i>
    <i name="e_wo_entrp">    -15.24777661 </i>
    <i name="e_0_energy">    -15.24777661 </i>
   </energy>
  </scstep>
  <scstep>
   <time name="dav">    1.43    1.43</time>
   <time name="total">    5.70    5.72</time>
   <energy>
    <i name="e_fr_energy">    -15.24352556 </i>
    <i name="e_wo_entrp">    -15.24352556 </i>
    <i name="e_0_energy">    -15.24352556 </i>
   </energy>
  </scstep>
  <scstep>
   <time name="dav">    1.47    1.48</time>
   <time name="total">    5.84    5.86</time>
   <energy>
    <i name="e_fr_energy">    -15.24451922 </i>
    <i name="e_wo_entrp">    -15.24451922 </i>
    <i name="e_0_energy">    -15.24451922 </i>
   </energy>
  </scstep>
  <scstep>
   <time name="dav">    2.00    2.00</time>
   <time name="total">    6.19    6.20</time>
   <energy>
    <i name="alphaZ">      0.43050678 </i>
    <i name="ewald">    153.98742247 </i>
    <i name="hartreedc">   -580.81584928 </i>
    <i name="XCdc">     40.62995213 </i>
    <i name="pawpsdc">    349.46219451 </i>
    <i name="pawaedc">   -352.90402827 </i>
    <i name="eentropy">      0.00000000 </i>
    <i name="bandstr">   -154.67729277 </i>
    <i name="atom">    528.64248996 </i>
    <i name="e_fr_energy">    -15.24460446 </i>
    <i name="e_wo_entrp">    -15.24460446 </i>
    <i name="e_0_energy">    -15.24460446 </i>
   </energy>
  </scstep>
  <structure>
   <crystal>
    <varray name="basis" >
     <v>      10.00000000       0.00000000       0.00000000 </v>
     <v>       0.00000000      10.00000000       0.00000000 </v>
     <v>       0.00000000       0.00000000      10.00000000 </v>
    </varray>
    <i name="volume">   1000.00000000 </i>
    <varray name="rec_basis" >
     <v>       0.10000000       0.00000000       0.00000000 </v>
     <v>       0.00000000       0.10000000       0.00000000 </v>
     <v>       0.00000000       0.00000000       0.10000000 </v>
    </varray>
   </crystal>
   <varray name="positions" >
    <v>       0.50000000       0.50000000       0.55034979 </v>
    <v>       0.50000000       0.50000000       0.44965021 </v>
   </varray>
  </structure>
  <varray name="forces" >
   <v>       0.00000000       0.00000000      25.79555131 </v>
   <v>       0.00000000       0.00000000     -25.79555131 </v>
  </varray>
  <varray name="stress" >
   <v>      -4.50312839       0.00000000       0.00000000 </v>
   <v>       0.00000000      -4.50312839       0.00000000 </v>
   <v>       0.00000000       0.00000000      36.23922237 </v>
  </varray>
  <energy>
   <i name="e_fr_energy">    -15.24460446 </i>
   <i name="e_wo_entrp">    -15.24460446 </i>
   <i name="e_0_energy">      0.00000000 </i>
  </energy>
  <time name="totalsc">   41.12   41.30</time>
 </calculation>
 <calculation>
  <scstep>
   <time name="dav">    1.13    1.13</time>
   <time name="total">    5.73    5.74</time>
   <energy>
    <i name="alphaZ">      0.43050678 </i>
    <i name="ewald">    117.94716147 </i>
    <i name="hartreedc">   -560.36610145 </i>
    <i name="XCdc">     39.98298024 </i>
    <i name="pawpsdc">    349.24236176 </i>
    <i name="pawaedc">   -352.68179669 </i>
    <i name="eentropy">      0.00000000 </i>
    <i name="bandstr">   -139.87227533 </i>
    <i name="atom">    528.64248996 </i>
    <i name="e_fr_energy">    -16.67467325 </i>
    <i name="e_wo_entrp">    -16.67467325 </i>
    <i name="e_0_energy">    -16.67467325 </i>
   </energy>
  </scstep>
  <scstep>
   <time name="dav">    1.51    1.51</time>
   <time name="total">    6.16    6.16</time>
   <energy>
    <i name="e_fr_energy">    -16.54790462 </i>
    <i name="e_wo_entrp">    -16.54790462 </i>
    <i name="e_0_energy">    -16.54790462 </i>
   </energy>
  </scstep>
  <scstep>
   <time name="dav">    1.60    1.60</time>
   <time name="total">    6.24    6.26</time>
   <energy>
    <i name="e_fr_energy">    -16.52422207 </i>
    <i name="e_wo_entrp">    -16.52422207 </i>
    <i name="e_0_energy">    -16.52422207 </i>
   </energy>
  </scstep>
  <scstep>
   <time name="dav">    1.17    1.17</time>
   <time name="total">    5.80    5.82</time>
   <energy>
    <i name="e_fr_energy">    -16.52511789 </i>
    <i name="e_wo_entrp">    -16.52511789 </i>
    <i name="e_0_energy">    -16.52511789 </i>
   </energy>
  </scstep>
  <scstep>
   <time name="dav">    1.54    1.54</time>
   <time name="total">    6.19    6.22</time>
   <energy>
    <i name="e_fr_energy">    -16.52629717 </i>
    <i name="e_wo_entrp">    -16.52629717 </i>
    <i name="e_0_energy">    -16.52629717 </i>
   </energy>
  </scstep>
  <scstep>
   <time name="dav">    0.72    0.72</time>
   <time name="total">    4.78    4.82</time>
   <energy>
    <i name="alphaZ">      0.43050678 </i>
    <i name="ewald">    117.94716147 </i>
    <i name="hartreedc">   -551.51949564 </i>
    <i name="XCdc">     39.48490170 </i>
    <i name="pawpsdc">    305.45630331 </i>
    <i name="pawaedc">   -308.55752750 </i>
    <i name="eentropy">      0.00000000 </i>
    <i name="bandstr">   -148.41066924 </i>
    <i name="atom">    528.64248996 </i>
    <i name="e_fr_energy">    -16.52632914 </i>
    <i name="e_wo_entrp">    -16.52632914 </i>
    <i name="e_0_energy">    -16.52632914 </i>
   </energy>
  </scstep>
  <structure>
   <crystal>
    <varray name="basis" >
     <v>      10.00000000       0.00000000       0.00000000 </v>
     <v>       0.00000000      10.00000000       0.00000000 </v>
     <v>       0.00000000       0.00000000      10.00000000 </v>
    </varray>
    <i name="volume">   1000.00000000 </i>
    <varray name="rec_basis" >
     <v>       0.10000000       0.00000000       0.00000000 </v>
     <v>       0.00000000       0.10000000       0.00000000 </v>
     <v>       0.00000000       0.00000000       0.10000000 </v>
    </varray>
   </crystal>
   <varray name="positions" >
    <v>       0.50000000       0.50000000       0.55602766 </v>
    <v>       0.50000000       0.50000000       0.44397234 </v>
   </varray>
  </structure>
  <varray name="forces" >
   <v>       0.00000000       0.00000000       0.06023383 </v>
   <v>       0.00000000       0.00000000      -0.06023383 </v>
  </varray>
  <varray name="stress" >
   <v>      -4.10809833       0.00000000       0.00000000 </v>
   <v>       0.00000000      -4.10809833       0.00000000 </v>
   <v>       0.00000000       0.00000000      -5.18818806 </v>
  </varray>
  <energy>
   <i name="e_fr_energy">    -16.52632914 </i>
   <i name="e_wo_entrp">    -16.52632914 </i>
   <i name="e_0_energy">      0.00000000 </i>
  </energy>
  <time name="totalsc">   40.87   41.19</time>
  <eigenvalues>
   <array>
    <dimension dim="1">band</dimension>
    <dimension dim="2">kpoint</dimension>
    <dimension dim="3">spin</dimension>
    <field>eigene</field>
    <field>occ</field>
    <set>
     <set comment="spin 1">
      <set comment="kpoint 1">
       <r>  -28.0080    1.0000 </r>
       <r>  -13.5004    1.0000 </r>
       <r>  -11.3542    1.0000 </r>
       <r>  -11.3542    1.0000 </r>
       <r>   -9.9886    1.0000 </r>
       <r>   -2.0508    0.0000 </r>
       <r>   -2.0508    0.0000 </r>
      </set>
     </set>
     <set comment="spin 2">
      <set comment="kpoint 1">
       <r>  -28.0079    1.0000 </r>
       <r>  -13.5003    1.0000 </r>
       <r>  -11.3543    1.0000 </r>
       <r>  -11.3543    1.0000 </r>
       <r>   -9.9886    1.0000 </r>
       <r>   -2.0509    0.0000 </r>
       <r>   -2.0509    0.0000 </r>
      </set>
     </set>
    </set>
   </array>
  </eigenvalues>
  <separator name="orbital magnetization" >
   <v name="MAGDIPOLOUT">      0.00000000      0.00000000      0.00000000</v>
  </separator>
  <dos>
   <i name="efermi">     -9.03720607 </i>
   <total>
    <array>
     <dimension dim="1">gridpoints</dimension>
     <dimension dim="2">spin</dimension>
     <field>energy</field>
     <field>total</field>
     <field>integrated</field>
     <set>
      <set comment="spin 1">
       <r>   -30.0080     0.0000     0.0000 </r>
       <r>   -29.9082     0.0000     0.0000 </r>
       <r>   -29.8083     0.0000     0.0000 </r>
       <r>   -29.7084     0.0000     0.0000 </r>
       <r>   -29.6086     0.0000     0.0000 </r>
       <r>   -29.5087     0.0000     0.0000 </r>
       <r>   -29.4089     0.0000     0.0000 </r>
       <r>   -29.3090     0.0000     0.0000 </r>
       <r>   -29.2092     0.0000     0.0000 </r>
       <r>   -29.1093     0.0000     0.0000 </r>
       <r>   -29.0094     0.0000     0.0000 </r>
       <r>   -28.9096     0.0000     0.0000 </r>
       <r>   -28.8097     0.0000     0.0000 </r>
       <r>   -28.7099     0.0000     0.0000 </r>
       <r>   -28.6100     0.0001     0.0000 </r>
       <r>   -28.5102     0.0018     0.0002 </r>
       <r>   -28.4103     0.0203     0.0022 </r>
       <r>   -28.3104     0.1404     0.0162 </r>
       <r>   -28.2106     0.5986     0.0760 </r>
       <r>   -28.1107     1.5804     0.2338 </r>
       <r>   -28.0109     2.5848     0.4919 </r>
       <r>   -27.9110     2.6204     0.7536 </r>
       <r>   -27.8112     1.6466     0.9180 </r>
       <r>   -27.7113     0.6410     0.9821 </r>
       <r>   -27.6114     0.1545     0.9975 </r>
       <r>   -27.5116     0.0230     0.9998 </r>
       <r>   -27.4117     0.0021     1.0000 </r>
       <r>   -27.3119     0.0001     1.0000 </r>
       <r>   -27.2120     0.0000     1.0000 </r>
       <r>   -27.1122     0.0000     1.0000 </r>
       <r>   -27.0123     0.0000     1.0000 </r>
       <r>   -26.9124     0.0000     1.0000 </r>
       <r>   -26.8126     0.0000     1.0000 </r>
       <r>   -26.7127     0.0000     1.0000 </r>
       <r>   -26.6129     0.0000     1.0000 </r>
       <r>   -26.5130     0.0000     1.0000 </r>
       <r>   -26.4132     0.0000     1.0000 </r>
       <r>   -26.3133     0.0000     1.0000 </r>
       <r>   -26.2134     0.0000     1.0000 </r>
       <r>   -26.1136     0.0000     1.0000 </r>
       <r>   -26.0137     0.0000     1.0000 </r>
       <r>   -25.9139     0.0000     1.0000 </r>
       <r>   -25.8140     0.0000     1.0000 </r>
       <r>   -25.7142     0.0000     1.0000 </r>
       <r>   -25.6143     0.0000     1.0000 </r>
       <r>   -25.5144     0.0000     1.0000 </r>
       <r>   -25.4146     0.0000     1.0000 </r>
       <r>   -25.3147     0.0000     1.0000 </r>
       <r>   -25.2149     0.0000     1.0000 </r>
       <r>   -25.1150     0.0000     1.0000 </r>
       <r>   -25.0152     0.0000     1.0000 </r>
       <r>   -24.9153     0.0000     1.0000 </r>
       <r>   -24.8154     0.0000     1.0000 </r>
       <r>   -24.7156     0.0000     1.0000 </r>
       <r>   -24.6157     0.0000     1.0000 </r>
       <r>   -24.5159     0.0000     1.0000 </r>
       <r>   -24.4160     0.0000     1.0000 </r>
       <r>   -24.3161     0.0000     1.0000 </r>
       <r>   -24.2163     0.0000     1.0000 </r>
       <r>   -24.1164     0.0000     1.0000 </r>
       <r>   -24.0166     0.0000     1.0000 </r>
       <r>   -23.9167     0.0000     1.0000 </r>
       <r>   -23.8169     0.0000     1.0000 </r>
       <r>   -23.7170     0.0000     1.0000 </r>
       <r>   -23.6171     0.0000     1.0000 </r>
       <r>   -23.5173     0.0000     1.0000 </r>
       <r>   -23.4174     0.0000     1.0000 </r>
       <r>   -23.3176     0.0000     1.0000 </r>
       <r>   -23.2177     0.0000     1.0000 </r>
       <r>   -23.1179     0.0000     1.0000 </r>
       <r>   -23.0180     0.0000     1.0000 </r>
       <r>   -22.9181     0.0000     1.0000 </r>
       <r>   -22.8183     0.0000     1.0000 </r>
       <r>   -22.7184     0.0000     1.0000 </r>
       <r>   -22.6186     0.0000     1.0000 </r>
       <r>   -22.5187     0.0000     1.0000 </r>
       <r>   -22.4189     0.0000     1.0000 </r>
       <r>   -22.3190     0.0000     1.0000 </r>
       <r>   -22.2191     0.0000     1.0000 </r>
       <r>   -22.1193     0.0000     1.0000 </r>
       <r>   -22.0194     0.0000     1.0000 </r>
       <r>   -21.9196     0.0000     1.0000 </r>
       <r>   -21.8197     0.0000     1.0000 </r>
       <r>   -21.7199     0.0000     1.0000 </r>
       <r>   -21.6200     0.0000     1.0000 </r>
       <r>   -21.5201     0.0000     1.0000 </r>
       <r>   -21.4203     0.0000     1.0000 </r>
       <r>   -21.3204     0.0000     1.0000 </r>
       <r>   -21.2206     0.0000     1.0000 </r>
       <r>   -21.1207     0.0000     1.0000 </r>
       <r>   -21.0209     0.0000     1.0000 </r>
       <r>   -20.9210     0.0000     1.0000 </r>
       <r>   -20.8211     0.0000     1.0000 </r>
       <r>   -20.7213     0.0000     1.0000 </r>
       <r>   -20.6214     0.0000     1.0000 </r>
       <r>   -20.5216     0.0000     1.0000 </r>
       <r>   -20.4217     0.0000     1.0000 </r>
       <r>   -20.3219     0.0000     1.0000 </r>
       <r>   -20.2220     0.0000     1.0000 </r>
       <r>   -20.1221     0.0000     1.0000 </r>
       <r>   -20.0223     0.0000     1.0000 </r>
       <r>   -19.9224     0.0000     1.0000 </r>
       <r>   -19.8226     0.0000     1.0000 </r>
       <r>   -19.7227     0.0000     1.0000 </r>
       <r>   -19.6229     0.0000     1.0000 </r>
       <r>   -19.5230     0.0000     1.0000 </r>
       <r>   -19.4231     0.0000     1.0000 </r>
       <r>   -19.3233     0.0000     1.0000 </r>
       <r>   -19.2234     0.0000     1.0000 </r>
       <r>   -19.1236     0.0000     1.0000 </r>
       <r>   -19.0237     0.0000     1.0000 </r>
       <r>   -18.9239     0.0000     1.0000 </r>
       <r>   -18.8240     0.0000     1.0000 </r>
       <r>   -18.7241     0.0000     1.0000 </r>
       <r>   -18.6243     0.0000     1.0000 </r>
       <r>   -18.5244     0.0000     1.0000 </r>
       <r>   -18.4246     0.0000     1.0000 </r>
       <r>   -18.3247     0.0000     1.0000 </r>
       <r>   -18.2249     0.0000     1.0000 </r>
       <r>   -18.1250     0.0000     1.0000 </r>
       <r>   -18.0251     0.0000     1.0000 </r>
       <r>   -17.9253     0.0000     1.0000 </r>
       <r>   -17.8254     0.0000     1.0000 </r>
       <r>   -17.7256     0.0000     1.0000 </r>
       <r>   -17.6257     0.0000     1.0000 </r>
       <r>   -17.5259     0.0000     1.0000 </r>
       <r>   -17.4260     0.0000     1.0000 </r>
       <r>   -17.3261     0.0000     1.0000 </r>
       <r>   -17.2263     0.0000     1.0000 </r>
       <r>   -17.1264     0.0000     1.0000 </r>
       <r>   -17.0266     0.0000     1.0000 </r>
       <r>   -16.9267     0.0000     1.0000 </r>
       <r>   -16.8269     0.0000     1.0000 </r>
       <r>   -16.7270     0.0000     1.0000 </r>
       <r>   -16.6271     0.0000     1.0000 </r>
       <r>   -16.5273     0.0000     1.0000 </r>
       <r>   -16.4274     0.0000     1.0000 </r>
       <r>   -16.3276     0.0000     1.0000 </r>
       <r>   -16.2277     0.0000     1.0000 </r>
       <r>   -16.1279     0.0000     1.0000 </r>
       <r>   -16.0280     0.0000     1.0000 </r>
       <r>   -15.9281     0.0000     1.0000 </r>
       <r>   -15.8283     0.0000     1.0000 </r>
       <r>   -15.7284     0.0000     1.0000 </r>
       <r>   -15.6286     0.0000     1.0000 </r>
       <r>   -15.5287     0.0000     1.0000 </r>
       <r>   -15.4289     0.0000     1.0000 </r>
       <r>   -15.3290     0.0000     1.0000 </r>
       <r>   -15.2291     0.0000     1.0000 </r>
       <r>   -15.1293     0.0000     1.0000 </r>
       <r>   -15.0294     0.0000     1.0000 </r>
       <r>   -14.9296     0.0000     1.0000 </r>
       <r>   -14.8297     0.0000     1.0000 </r>
       <r>   -14.7299     0.0000     1.0000 </r>
       <r>   -14.6300     0.0000     1.0000 </r>
       <r>   -14.5301     0.0000     1.0000 </r>
       <r>   -14.4303     0.0000     1.0000 </r>
       <r>   -14.3304     0.0000     1.0000 </r>
       <r>   -14.2306     0.0000     1.0000 </r>
       <r>   -14.1307     0.0000     1.0000 </r>
       <r>   -14.0309     0.0008     1.0001 </r>
       <r>   -13.9310     0.0108     1.0012 </r>
       <r>   -13.8311     0.0852     1.0097 </r>
       <r>   -13.7313     0.4164     1.0513 </r>
       <r>   -13.6314     1.2596     1.1770 </r>
       <r>   -13.5316     2.3599     1.4127 </r>
       <r>   -13.4317     2.7403     1.6863 </r>
       <r>   -13.3318     1.9724     1.8833 </r>
       <r>   -13.2320     0.8797     1.9711 </r>
       <r>   -13.1321     0.2429     1.9954 </r>
       <r>   -13.0323     0.0415     1.9995 </r>
       <r>   -12.9324     0.0044     2.0000 </r>
       <r>   -12.8326     0.0003     2.0000 </r>
       <r>   -12.7327     0.0000     2.0000 </r>
       <r>   -12.6328     0.0000     2.0000 </r>
       <r>   -12.5330     0.0000     2.0000 </r>
       <r>   -12.4331     0.0000     2.0000 </r>
       <r>   -12.3333     0.0000     2.0000 </r>
       <r>   -12.2334     0.0000     2.0000 </r>
       <r>   -12.1336     0.0000     2.0000 </r>
       <r>   -12.0337     0.0000     2.0000 </r>
       <r>   -11.9338     0.0004     2.0000 </r>
       <r>   -11.8340     0.0065     2.0007 </r>
       <r>   -11.7341     0.0654     2.0072 </r>
       <r>   -11.6343     0.4048     2.0476 </r>
       <r>   -11.5344     1.5509     2.2025 </r>
       <r>   -11.4346     3.6782     2.5698 </r>
       <r>   -11.3347     5.4054     3.1096 </r>
       <r>   -11.2348     4.9238     3.6013 </r>
       <r>   -11.1350     2.7799     3.8788 </r>
       <r>   -11.0351     0.9722     3.9759 </r>
       <r>   -10.9353     0.2104     3.9969 </r>
       <r>   -10.8354     0.0281     3.9998 </r>
       <r>   -10.7356     0.0023     4.0000 </r>
       <r>   -10.6357     0.0001     4.0000 </r>
       <r>   -10.5358     0.0005     4.0001 </r>
       <r>   -10.4360     0.0073     4.0008 </r>
       <r>   -10.3361     0.0622     4.0070 </r>
       <r>   -10.2363     0.3299     4.0399 </r>
       <r>   -10.1364     1.0815     4.1479 </r>
       <r>   -10.0366     2.1959     4.3672 </r>
       <r>    -9.9367     2.7632     4.6431 </r>
       <r>    -9.8368     2.1553     4.8584 </r>
       <r>    -9.7370     1.0418     4.9624 </r>
       <r>    -9.6371     0.3119     4.9935 </r>
       <r>    -9.5373     0.0577     4.9993 </r>
       <r>    -9.4374     0.0066     5.0000 </r>
       <r>    -9.3376     0.0005     5.0000 </r>
       <r>    -9.2377     0.0000     5.0000 </r>
       <r>    -9.1378     0.0000     5.0000 </r>
       <r>    -9.0380     0.0000     5.0000 </r>
       <r>    -8.9381     0.0000     5.0000 </r>
       <r>    -8.8383     0.0000     5.0000 </r>
       <r>    -8.7384     0.0000     5.0000 </r>
       <r>    -8.6386     0.0000     5.0000 </r>
       <r>    -8.5387     0.0000     5.0000 </r>
       <r>    -8.4388     0.0000     5.0000 </r>
       <r>    -8.3390     0.0000     5.0000 </r>
       <r>    -8.2391     0.0000     5.0000 </r>
       <r>    -8.1393     0.0000     5.0000 </r>
       <r>    -8.0394     0.0000     5.0000 </r>
       <r>    -7.9396     0.0000     5.0000 </r>
       <r>    -7.8397     0.0000     5.0000 </r>
       <r>    -7.7398     0.0000     5.0000 </r>
       <r>    -7.6400     0.0000     5.0000 </r>
       <r>    -7.5401     0.0000     5.0000 </r>
       <r>    -7.4403     0.0000     5.0000 </r>
       <r>    -7.3404     0.0000     5.0000 </r>
       <r>    -7.2406     0.0000     5.0000 </r>
       <r>    -7.1407     0.0000     5.0000 </r>
       <r>    -7.0408     0.0000     5.0000 </r>
       <r>    -6.9410     0.0000     5.0000 </r>
       <r>    -6.8411     0.0000     5.0000 </r>
       <r>    -6.7413     0.0000     5.0000 </r>
       <r>    -6.6414     0.0000     5.0000 </r>
       <r>    -6.5416     0.0000     5.0000 </r>
       <r>    -6.4417     0.0000     5.0000 </r>
       <r>    -6.3418     0.0000     5.0000 </r>
       <r>    -6.2420     0.0000     5.0000 </r>
       <r>    -6.1421     0.0000     5.0000 </r>
       <r>    -6.0423     0.0000     5.0000 </r>
       <r>    -5.9424     0.0000     5.0000 </r>
       <r>    -5.8426     0.0000     5.0000 </r>
       <r>    -5.7427     0.0000     5.0000 </r>
       <r>    -5.6428     0.0000     5.0000 </r>
       <r>    -5.5430     0.0000     5.0000 </r>
       <r>    -5.4431     0.0000     5.0000 </r>
       <r>    -5.3433     0.0000     5.0000 </r>
       <r>    -5.2434     0.0000     5.0000 </r>
       <r>    -5.1436     0.0000     5.0000 </r>
       <r>    -5.0437     0.0000     5.0000 </r>
       <r>    -4.9438     0.0000     5.0000 </r>
       <r>    -4.8440     0.0000     5.0000 </r>
       <r>    -4.7441     0.0000     5.0000 </r>
       <r>    -4.6443     0.0000     5.0000 </r>
       <r>    -4.5444     0.0000     5.0000 </r>
       <r>    -4.4446     0.0000     5.0000 </r>
       <r>    -4.3447     0.0000     5.0000 </r>
       <r>    -4.2448     0.0000     5.0000 </r>
       <r>    -4.1450     0.0000     5.0000 </r>
       <r>    -4.0451     0.0000     5.0000 </r>
       <r>    -3.9453     0.0000     5.0000 </r>
       <r>    -3.8454     0.0000     5.0000 </r>
       <r>    -3.7456     0.0000     5.0000 </r>
       <r>    -3.6457     0.0000     5.0000 </r>
       <r>    -3.5458     0.0000     5.0000 </r>
       <r>    -3.4460     0.0000     5.0000 </r>
       <r>    -3.3461     0.0000     5.0000 </r>
       <r>    -3.2463     0.0000     5.0000 </r>
       <r>    -3.1464     0.0000     5.0000 </r>
       <r>    -3.0465     0.0000     5.0000 </r>
       <r>    -2.9467     0.0000     5.0000 </r>
       <r>    -2.8468     0.0000     5.0000 </r>
       <r>    -2.7470     0.0000     5.0000 </r>
       <r>    -2.6471     0.0002     5.0000 </r>
       <r>    -2.5473     0.0042     5.0004 </r>
       <r>    -2.4474     0.0460     5.0050 </r>
       <r>    -2.3475     0.3090     5.0359 </r>
       <r>    -2.2477     1.2821     5.1639 </r>
       <r>    -2.1478     3.2932     5.4928 </r>
       <r>    -2.0480     5.2408     6.0161 </r>
       <r>    -1.9481     5.1697     6.5323 </r>
       <r>    -1.8483     3.1608     6.8480 </r>
       <r>    -1.7484     1.1973     6.9675 </r>
       <r>    -1.6485     0.2807     6.9956 </r>
       <r>    -1.5487     0.0407     6.9996 </r>
       <r>    -1.4488     0.0036     7.0000 </r>
       <r>    -1.3490     0.0002     7.0000 </r>
       <r>    -1.2491     0.0000     7.0000 </r>
       <r>    -1.1493     0.0000     7.0000 </r>
       <r>    -1.0494     0.0000     7.0000 </r>
       <r>    -0.9495     0.0000     7.0000 </r>
       <r>    -0.8497     0.0000     7.0000 </r>
       <r>    -0.7498     0.0000     7.0000 </r>
       <r>    -0.6500     0.0000     7.0000 </r>
       <r>    -0.5501     0.0000     7.0000 </r>
       <r>    -0.4503     0.0000     7.0000 </r>
       <r>    -0.3504     0.0000     7.0000 </r>
       <r>    -0.2505     0.0000     7.0000 </r>
       <r>    -0.1507     0.0000     7.0000 </r>
       <r>    -0.0508     0.0000     7.0000 </r>
      </set>
      <set comment="spin 2">
       <r>   -30.0080     0.0000     0.0000 </r>
       <r>   -29.9082     0.0000     0.0000 </r>
       <r>   -29.8083     0.0000     0.0000 </r>
       <r>   -29.7084     0.0000     0.0000 </r>
       <r>   -29.6086     0.0000     0.0000 </r>
       <r>   -29.5087     0.0000     0.0000 </r>
       <r>   -29.4089     0.0000     0.0000 </r>
       <r>   -29.3090     0.0000     0.0000 </r>
       <r>   -29.2092     0.0000     0.0000 </r>
       <r>   -29.1093     0.0000     0.0000 </r>
       <r>   -29.0094     0.0000     0.0000 </r>
       <r>   -28.9096     0.0000     0.0000 </r>
       <r>   -28.8097     0.0000     0.0000 </r>
       <r>   -28.7099     0.0000     0.0000 </r>
       <r>   -28.6100     0.0001     0.0000 </r>
       <r>   -28.5102     0.0018     0.0002 </r>
       <r>   -28.4103     0.0203     0.0022 </r>
       <r>   -28.3104     0.1402     0.0162 </r>
       <r>   -28.2106     0.5981     0.0759 </r>
       <r>   -28.1107     1.5795     0.2337 </r>
       <r>   -28.0109     2.5843     0.4917 </r>
       <r>   -27.9110     2.6209     0.7534 </r>
       <r>   -27.8112     1.6475     0.9180 </r>
       <r>   -27.7113     0.6416     0.9820 </r>
       <r>   -27.6114     0.1547     0.9975 </r>
       <r>   -27.5116     0.0231     0.9998 </r>
       <r>   -27.4117     0.0021     1.0000 </r>
       <r>   -27.3119     0.0001     1.0000 </r>
       <r>   -27.2120     0.0000     1.0000 </r>
       <r>   -27.1122     0.0000     1.0000 </r>
       <r>   -27.0123     0.0000     1.0000 </r>
       <r>   -26.9124     0.0000     1.0000 </r>
       <r>   -26.8126     0.0000     1.0000 </r>
       <r>   -26.7127     0.0000     1.0000 </r>
       <r>   -26.6129     0.0000     1.0000 </r>
       <r>   -26.5130     0.0000     1.0000 </r>
       <r>   -26.4132     0.0000     1.0000 </r>
       <r>   -26.3133     0.0000     1.0000 </r>
       <r>   -26.2134     0.0000     1.0000 </r>
       <r>   -26.1136     0.0000     1.0000 </r>
       <r>   -26.0137     0.0000     1.0000 </r>
       <r>   -25.9139     0.0000     1.0000 </r>
       <r>   -25.8140     0.0000     1.0000 </r>
       <r>   -25.7142     0.0000     1.0000 </r>
       <r>   -25.6143     0.0000     1.0000 </r>
       <r>   -25.5144     0.0000     1.0000 </r>
       <r>   -25.4146     0.0000     1.0000 </r>
       <r>   -25.3147     0.0000     1.0000 </r>
       <r>   -25.2149     0.0000     1.0000 </r>
       <r>   -25.1150     0.0000     1.0000 </r>
       <r>   -25.0152     0.0000     1.0000 </r>
       <r>   -24.9153     0.0000     1.0000 </r>
       <r>   -24.8154     0.0000     1.0000 </r>
       <r>   -24.7156     0.0000     1.0000 </r>
       <r>   -24.6157     0.0000     1.0000 </r>
       <r>   -24.5159     0.0000     1.0000 </r>
       <r>   -24.4160     0.0000     1.0000 </r>
       <r>   -24.3161     0.0000     1.0000 </r>
       <r>   -24.2163     0.0000     1.0000 </r>
       <r>   -24.1164     0.0000     1.0000 </r>
       <r>   -24.0166     0.0000     1.0000 </r>
       <r>   -23.9167     0.0000     1.0000 </r>
       <r>   -23.8169     0.0000     1.0000 </r>
       <r>   -23.7170     0.0000     1.0000 </r>
       <r>   -23.6171     0.0000     1.0000 </r>
       <r>   -23.5173     0.0000     1.0000 </r>
       <r>   -23.4174     0.0000     1.0000 </r>
       <r>   -23.3176     0.0000     1.0000 </r>
       <r>   -23.2177     0.0000     1.0000 </r>
       <r>   -23.1179     0.0000     1.0000 </r>
       <r>   -23.0180     0.0000     1.0000 </r>
       <r>   -22.9181     0.0000     1.0000 </r>
       <r>   -22.8183     0.0000     1.0000 </r>
       <r>   -22.7184     0.0000     1.0000 </r>
       <r>   -22.6186     0.0000     1.0000 </r>
       <r>   -22.5187     0.0000     1.0000 </r>
       <r>   -22.4189     0.0000     1.0000 </r>
       <r>   -22.3190     0.0000     1.0000 </r>
       <r>   -22.2191     0.0000     1.0000 </r>
       <r>   -22.1193     0.0000     1.0000 </r>
       <r>   -22.0194     0.0000     1.0000 </r>
       <r>   -21.9196     0.0000     1.0000 </r>
       <r>   -21.8197     0.0000     1.0000 </r>
       <r>   -21.7199     0.0000     1.0000 </r>
       <r>   -21.6200     0.0000     1.0000 </r>
       <r>   -21.5201     0.0000     1.0000 </r>
       <r>   -21.4203     0.0000     1.0000 </r>
       <r>   -21.3204     0.0000     1.0000 </r>
       <r>   -21.2206     0.0000     1.0000 </r>
       <r>   -21.1207     0.0000     1.0000 </r>
       <r>   -21.0209     0.0000     1.0000 </r>
       <r>   -20.9210     0.0000     1.0000 </r>
       <r>   -20.8211     0.0000     1.0000 </r>
       <r>   -20.7213     0.0000     1.0000 </r>
       <r>   -20.6214     0.0000     1.0000 </r>
       <r>   -20.5216     0.0000     1.0000 </r>
       <r>   -20.4217     0.0000     1.0000 </r>
       <r>   -20.3219     0.0000     1.0000 </r>
       <r>   -20.2220     0.0000     1.0000 </r>
       <r>   -20.1221     0.0000     1.0000 </r>
       <r>   -20.0223     0.0000     1.0000 </r>
       <r>   -19.9224     0.0000     1.0000 </r>
       <r>   -19.8226     0.0000     1.0000 </r>
       <r>   -19.7227     0.0000     1.0000 </r>
       <r>   -19.6229     0.0000     1.0000 </r>
       <r>   -19.5230     0.0000     1.0000 </r>
       <r>   -19.4231     0.0000     1.0000 </r>
       <r>   -19.3233     0.0000     1.0000 </r>
       <r>   -19.2234     0.0000     1.0000 </r>
       <r>   -19.1236     0.0000     1.0000 </r>
       <r>   -19.0237     0.0000     1.0000 </r>
       <r>   -18.9239     0.0000     1.0000 </r>
       <r>   -18.8240     0.0000     1.0000 </r>
       <r>   -18.7241     0.0000     1.0000 </r>
       <r>   -18.6243     0.0000     1.0000 </r>
       <r>   -18.5244     0.0000     1.0000 </r>
       <r>   -18.4246     0.0000     1.0000 </r>
       <r>   -18.3247     0.0000     1.0000 </r>
       <r>   -18.2249     0.0000     1.0000 </r>
       <r>   -18.1250     0.0000     1.0000 </r>
       <r>   -18.0251     0.0000     1.0000 </r>
       <r>   -17.9253     0.0000     1.0000 </r>
       <r>   -17.8254     0.0000     1.0000 </r>
       <r>   -17.7256     0.0000     1.0000 </r>
       <r>   -17.6257     0.0000     1.0000 </r>
       <r>   -17.5259     0.0000     1.0000 </r>
       <r>   -17.4260     0.0000     1.0000 </r>
       <r>   -17.3261     0.0000     1.0000 </r>
       <r>   -17.2263     0.0000     1.0000 </r>
       <r>   -17.1264     0.0000     1.0000 </r>
       <r>   -17.0266     0.0000     1.0000 </r>
       <r>   -16.9267     0.0000     1.0000 </r>
       <r>   -16.8269     0.0000     1.0000 </r>
       <r>   -16.7270     0.0000     1.0000 </r>
       <r>   -16.6271     0.0000     1.0000 </r>
       <r>   -16.5273     0.0000     1.0000 </r>
       <r>   -16.4274     0.0000     1.0000 </r>
       <r>   -16.3276     0.0000     1.0000 </r>
       <r>   -16.2277     0.0000     1.0000 </r>
       <r>   -16.1279     0.0000     1.0000 </r>
       <r>   -16.0280     0.0000     1.0000 </r>
       <r>   -15.9281     0.0000     1.0000 </r>
       <r>   -15.8283     0.0000     1.0000 </r>
       <r>   -15.7284     0.0000     1.0000 </r>
       <r>   -15.6286     0.0000     1.0000 </r>
       <r>   -15.5287     0.0000     1.0000 </r>
       <r>   -15.4289     0.0000     1.0000 </r>
       <r>   -15.3290     0.0000     1.0000 </r>
       <r>   -15.2291     0.0000     1.0000 </r>
       <r>   -15.1293     0.0000     1.0000 </r>
       <r>   -15.0294     0.0000     1.0000 </r>
       <r>   -14.9296     0.0000     1.0000 </r>
       <r>   -14.8297     0.0000     1.0000 </r>
       <r>   -14.7299     0.0000     1.0000 </r>
       <r>   -14.6300     0.0000     1.0000 </r>
       <r>   -14.5301     0.0000     1.0000 </r>
       <r>   -14.4303     0.0000     1.0000 </r>
       <r>   -14.3304     0.0000     1.0000 </r>
       <r>   -14.2306     0.0000     1.0000 </r>
       <r>   -14.1307     0.0000     1.0000 </r>
       <r>   -14.0309     0.0008     1.0001 </r>
       <r>   -13.9310     0.0108     1.0012 </r>
       <r>   -13.8311     0.0851     1.0097 </r>
       <r>   -13.7313     0.4161     1.0512 </r>
       <r>   -13.6314     1.2589     1.1769 </r>
       <r>   -13.5316     2.3594     1.4125 </r>
       <r>   -13.4317     2.7404     1.6862 </r>
       <r>   -13.3318     1.9731     1.8832 </r>
       <r>   -13.2320     0.8803     1.9711 </r>
       <r>   -13.1321     0.2432     1.9954 </r>
       <r>   -13.0323     0.0415     1.9995 </r>
       <r>   -12.9324     0.0044     2.0000 </r>
       <r>   -12.8326     0.0003     2.0000 </r>
       <r>   -12.7327     0.0000     2.0000 </r>
       <r>   -12.6328     0.0000     2.0000 </r>
       <r>   -12.5330     0.0000     2.0000 </r>
       <r>   -12.4331     0.0000     2.0000 </r>
       <r>   -12.3333     0.0000     2.0000 </r>
       <r>   -12.2334     0.0000     2.0000 </r>
       <r>   -12.1336     0.0000     2.0000 </r>
       <r>   -12.0337     0.0000     2.0000 </r>
       <r>   -11.9338     0.0004     2.0000 </r>
       <r>   -11.8340     0.0065     2.0007 </r>
       <r>   -11.7341     0.0654     2.0072 </r>
       <r>   -11.6343     0.4053     2.0477 </r>
       <r>   -11.5344     1.5520     2.2027 </r>
       <r>   -11.4346     3.6797     2.5701 </r>
       <r>   -11.3347     5.4059     3.1099 </r>
       <r>   -11.2348     4.9228     3.6015 </r>
       <r>   -11.1350     2.7785     3.8790 </r>
       <r>   -11.0351     0.9714     3.9760 </r>
       <r>   -10.9353     0.2102     3.9969 </r>
       <r>   -10.8354     0.0281     3.9998 </r>
       <r>   -10.7356     0.0023     4.0000 </r>
       <r>   -10.6357     0.0001     4.0000 </r>
       <r>   -10.5358     0.0005     4.0001 </r>
       <r>   -10.4360     0.0073     4.0008 </r>
       <r>   -10.3361     0.0623     4.0070 </r>
       <r>   -10.2363     0.3300     4.0399 </r>
       <r>   -10.1364     1.0817     4.1480 </r>
       <r>   -10.0366     2.1961     4.3673 </r>
       <r>    -9.9367     2.7632     4.6432 </r>
       <r>    -9.8368     2.1551     4.8584 </r>
       <r>    -9.7370     1.0416     4.9624 </r>
       <r>    -9.6371     0.3118     4.9935 </r>
       <r>    -9.5373     0.0577     4.9993 </r>
       <r>    -9.4374     0.0066     5.0000 </r>
       <r>    -9.3376     0.0005     5.0000 </r>
       <r>    -9.2377     0.0000     5.0000 </r>
       <r>    -9.1378     0.0000     5.0000 </r>
       <r>    -9.0380     0.0000     5.0000 </r>
       <r>    -8.9381     0.0000     5.0000 </r>
       <r>    -8.8383     0.0000     5.0000 </r>
       <r>    -8.7384     0.0000     5.0000 </r>
       <r>    -8.6386     0.0000     5.0000 </r>
       <r>    -8.5387     0.0000     5.0000 </r>
       <r>    -8.4388     0.0000     5.0000 </r>
       <r>    -8.3390     0.0000     5.0000 </r>
       <r>    -8.2391     0.0000     5.0000 </r>
       <r>    -8.1393     0.0000     5.0000 </r>
       <r>    -8.0394     0.0000     5.0000 </r>
       <r>    -7.9396     0.0000     5.0000 </r>
       <r>    -7.8397     0.0000     5.0000 </r>
       <r>    -7.7398     0.0000     5.0000 </r>
       <r>    -7.6400     0.0000     5.0000 </r>
       <r>    -7.5401     0.0000     5.0000 </r>
       <r>    -7.4403     0.0000     5.0000 </r>
       <r>    -7.3404     0.0000     5.0000 </r>
       <r>    -7.2406     0.0000     5.0000 </r>
       <r>    -7.1407     0.0000     5.0000 </r>
       <r>    -7.0408     0.0000     5.0000 </r>
       <r>    -6.9410     0.0000     5.0000 </r>
       <r>    -6.8411     0.0000     5.0000 </r>
       <r>    -6.7413     0.0000     5.0000 </r>
       <r>    -6.6414     0.0000     5.0000 </r>
       <r>    -6.5416     0.0000     5.0000 </r>
       <r>    -6.4417     0.0000     5.0000 </r>
       <r>    -6.3418     0.0000     5.0000 </r>
       <r>    -6.2420     0.0000     5.0000 </r>
       <r>    -6.1421     0.0000     5.0000 </r>
       <r>    -6.0423     0.0000     5.0000 </r>
       <r>    -5.9424     0.0000     5.0000 </r>
       <r>    -5.8426     0.0000     5.0000 </r>
       <r>    -5.7427     0.0000     5.0000 </r>
       <r>    -5.6428     0.0000     5.0000 </r>
       <r>    -5.5430     0.0000     5.0000 </r>
       <r>    -5.4431     0.0000     5.0000 </r>
       <r>    -5.3433     0.0000     5.0000 </r>
       <r>    -5.2434     0.0000     5.0000 </r>
       <r>    -5.1436     0.0000     5.0000 </r>
       <r>    -5.0437     0.0000     5.0000 </r>
       <r>    -4.9438     0.0000     5.0000 </r>
       <r>    -4.8440     0.0000     5.0000 </r>
       <r>    -4.7441     0.0000     5.0000 </r>
       <r>    -4.6443     0.0000     5.0000 </r>
       <r>    -4.5444     0.0000     5.0000 </r>
       <r>    -4.4446     0.0000     5.0000 </r>
       <r>    -4.3447     0.0000     5.0000 </r>
       <r>    -4.2448     0.0000     5.0000 </r>
       <r>    -4.1450     0.0000     5.0000 </r>
       <r>    -4.0451     0.0000     5.0000 </r>
       <r>    -3.9453     0.0000     5.0000 </r>
       <r>    -3.8454     0.0000     5.0000 </r>
       <r>    -3.7456     0.0000     5.0000 </r>
       <r>    -3.6457     0.0000     5.0000 </r>
       <r>    -3.5458     0.0000     5.0000 </r>
       <r>    -3.4460     0.0000     5.0000 </r>
       <r>    -3.3461     0.0000     5.0000 </r>
       <r>    -3.2463     0.0000     5.0000 </r>
       <r>    -3.1464     0.0000     5.0000 </r>
       <r>    -3.0465     0.0000     5.0000 </r>
       <r>    -2.9467     0.0000     5.0000 </r>
       <r>    -2.8468     0.0000     5.0000 </r>
       <r>    -2.7470     0.0000     5.0000 </r>
       <r>    -2.6471     0.0002     5.0000 </r>
       <r>    -2.5473     0.0042     5.0004 </r>
       <r>    -2.4474     0.0461     5.0051 </r>
       <r>    -2.3475     0.3094     5.0360 </r>
       <r>    -2.2477     1.2835     5.1641 </r>
       <r>    -2.1478     3.2953     5.4932 </r>
       <r>    -2.0480     5.2419     6.0166 </r>
       <r>    -1.9481     5.1685     6.5327 </r>
       <r>    -1.8483     3.1587     6.8482 </r>
       <r>    -1.7484     1.1959     6.9676 </r>
       <r>    -1.6485     0.2803     6.9956 </r>
       <r>    -1.5487     0.0406     6.9996 </r>
       <r>    -1.4488     0.0036     7.0000 </r>
       <r>    -1.3490     0.0002     7.0000 </r>
       <r>    -1.2491     0.0000     7.0000 </r>
       <r>    -1.1493     0.0000     7.0000 </r>
       <r>    -1.0494     0.0000     7.0000 </r>
       <r>    -0.9495     0.0000     7.0000 </r>
       <r>    -0.8497     0.0000     7.0000 </r>
       <r>    -0.7498     0.0000     7.0000 </r>
       <r>    -0.6500     0.0000     7.0000 </r>
       <r>    -0.5501     0.0000     7.0000 </r>
       <r>    -0.4503     0.0000     7.0000 </r>
       <r>    -0.3504     0.0000     7.0000 </r>
       <r>    -0.2505     0.0000     7.0000 </r>
       <r>    -0.1507     0.0000     7.0000 </r>
       <r>    -0.0508     0.0000     7.0000 </r>
      </set>
     </set>
    </array>
   </total>
  </dos>
 </calculation>
 <structure name="finalpos" >
  <crystal>
   <varray name="basis" >
    <v>      10.00000000       0.00000000       0.00000000 </v>
    <v>       0.00000000      10.00000000       0.00000000 </v>
    <v>       0.00000000       0.00000000      10.00000000 </v>
   </varray>
   <i name="volume">   1000.00000000 </i>
   <varray name="rec_basis" >
    <v>       0.10000000       0.00000000       0.00000000 </v>
    <v>       0.00000000       0.10000000       0.00000000 </v>
    <v>       0.00000000       0.00000000       0.10000000 </v>
   </varray>
  </crystal>
  <varray name="positions" >
   <v>       0.50000000       0.50000000       0.55602766 </v>
   <v>       0.50000000       0.50000000       0.44397234 </v>
  </varray>
 </structure>
</modeling>
