   5   5   0   0
  0.2000000E+03  0.1000000E-08  0.1000000E-08  0.1000000E-08  0.5000000E-15
  1.000000000000000E-004
  CAR 
 unknown system                          
      3.28588853    -18.85772093  301     -8.30245626      1.00000000
    -18.858  0.0000E+00  0.0000E+00  0.0000E+00  0.0000E+00
    -18.784  0.0000E+00  0.0000E+00  0.0000E+00  0.0000E+00
    -18.710  0.0000E+00  0.0000E+00  0.0000E+00  0.0000E+00
    -18.636  0.0000E+00  0.0000E+00  0.0000E+00  0.0000E+00
    -18.562  0.0000E+00  0.0000E+00  0.0000E+00  0.0000E+00
    -18.489  0.0000E+00  0.0000E+00  0.0000E+00  0.0000E+00
    -18.415  0.0000E+00  0.0000E+00  0.0000E+00  0.0000E+00
    -18.341  0.0000E+00  0.0000E+00  0.0000E+00  0.0000E+00
    -18.267  0.0000E+00  0.0000E+00  0.0000E+00  0.0000E+00
    -18.193  0.0000E+00  0.0000E+00  0.0000E+00  0.0000E+00
    -18.120  0.0000E+00  0.0000E+00  0.0000E+00  0.0000E+00
    -18.046  0.0000E+00  0.0000E+00  0.0000E+00  0.0000E+00
    -17.972  0.2256E-14  0.2256E-14  0.1665E-15  0.1665E-15
    -17.898  0.1251E-12  0.1248E-12  0.9404E-14  0.9381E-14
    -17.824  0.5423E-11  0.5412E-11  0.4097E-12  0.4088E-12
    -17.751  0.1796E-09  0.1793E-09  0.1367E-10  0.1364E-10
    -17.677  0.4547E-08  0.4539E-08  0.3493E-09  0.3487E-09
    -17.603  0.8802E-07  0.8788E-07  0.6846E-08  0.6835E-08
    -17.529  0.1303E-05  0.1301E-05  0.1030E-06  0.1029E-06
    -17.455  0.1476E-04  0.1474E-04  0.1192E-05  0.1191E-05
    -17.381  0.1279E-03  0.1277E-03  0.1063E-04  0.1062E-04
    -17.308  0.8481E-03  0.8472E-03  0.7323E-04  0.7315E-04
    -17.234  0.4306E-02  0.4303E-02  0.3911E-03  0.3907E-03
    -17.160  0.1674E-01  0.1673E-01  0.1627E-02  0.1626E-02
    -17.086  0.4985E-01  0.4983E-01  0.5307E-02  0.5303E-02
    -17.012  0.1137E+00  0.1137E+00  0.1370E-01  0.1369E-01
    -16.939  0.1987E+00  0.1987E+00  0.2837E-01  0.2836E-01
    -16.865  0.2660E+00  0.2660E+00  0.4800E-01  0.4799E-01
    -16.791  0.2729E+00  0.2729E+00  0.6815E-01  0.6814E-01
    -16.717  0.2145E+00  0.2146E+00  0.8398E-01  0.8398E-01
    -16.643  0.1292E+00  0.1292E+00  0.9352E-01  0.9352E-01
    -16.570  0.5961E-01  0.5964E-01  0.9792E-01  0.9792E-01
    -16.496  0.2107E-01  0.2108E-01  0.9948E-01  0.9948E-01
    -16.422  0.5703E-02  0.5708E-02  0.9990E-01  0.9990E-01
    -16.348  0.1182E-02  0.1183E-02  0.9998E-01  0.9998E-01
    -16.274  0.1876E-03  0.1878E-03  0.1000E+00  0.1000E+00
    -16.200  0.2279E-04  0.2282E-04  0.1000E+00  0.1000E+00
    -16.127  0.2119E-05  0.2122E-05  0.1000E+00  0.1000E+00
    -16.053  0.1506E-06  0.1509E-06  0.1000E+00  0.1000E+00
    -15.979  0.8194E-08  0.8208E-08  0.1000E+00  0.1000E+00
    -15.905  0.3407E-09  0.3414E-09  0.1000E+00  0.1000E+00
    -15.831  0.1083E-10  0.1085E-10  0.1000E+00  0.1000E+00
    -15.758  0.2631E-12  0.2637E-12  0.1000E+00  0.1000E+00
    -15.684  0.4964E-14  0.4964E-14  0.1000E+00  0.1000E+00
    -15.610  0.0000E+00  0.0000E+00  0.1000E+00  0.1000E+00
    -15.536  0.0000E+00  0.0000E+00  0.1000E+00  0.1000E+00
    -15.462  0.0000E+00  0.0000E+00  0.1000E+00  0.1000E+00
    -15.389  0.0000E+00  0.0000E+00  0.1000E+00  0.1000E+00
    -15.315  0.0000E+00  0.0000E+00  0.1000E+00  0.1000E+00
    -15.241  0.0000E+00  0.0000E+00  0.1000E+00  0.1000E+00
    -15.167  0.0000E+00  0.0000E+00  0.1000E+00  0.1000E+00
    -15.093  0.0000E+00  0.0000E+00  0.1000E+00  0.1000E+00
    -15.019  0.0000E+00  0.0000E+00  0.1000E+00  0.1000E+00
    -14.946  0.0000E+00  0.0000E+00  0.1000E+00  0.1000E+00
    -14.872  0.0000E+00  0.0000E+00  0.1000E+00  0.1000E+00
    -14.798  0.0000E+00  0.0000E+00  0.1000E+00  0.1000E+00
    -14.724  0.0000E+00  0.0000E+00  0.1000E+00  0.1000E+00
    -14.650  0.0000E+00  0.0000E+00  0.1000E+00  0.1000E+00
    -14.577  0.0000E+00  0.0000E+00  0.1000E+00  0.1000E+00
    -14.503  0.0000E+00  0.0000E+00  0.1000E+00  0.1000E+00
    -14.429  0.0000E+00  0.0000E+00  0.1000E+00  0.1000E+00
    -14.355  0.0000E+00  0.0000E+00  0.1000E+00  0.1000E+00
    -14.281  0.0000E+00  0.0000E+00  0.1000E+00  0.1000E+00
    -14.208  0.0000E+00  0.0000E+00  0.1000E+00  0.1000E+00
    -14.134  0.0000E+00  0.0000E+00  0.1000E+00  0.1000E+00
    -14.060  0.0000E+00  0.0000E+00  0.1000E+00  0.1000E+00
    -13.986  0.0000E+00  0.0000E+00  0.1000E+00  0.1000E+00
    -13.912  0.0000E+00  0.0000E+00  0.1000E+00  0.1000E+00
    -13.839  0.0000E+00  0.0000E+00  0.1000E+00  0.1000E+00
    -13.765  0.0000E+00  0.0000E+00  0.1000E+00  0.1000E+00
    -13.691  0.0000E+00  0.0000E+00  0.1000E+00  0.1000E+00
    -13.617  0.0000E+00  0.0000E+00  0.1000E+00  0.1000E+00
    -13.543  0.0000E+00  0.0000E+00  0.1000E+00  0.1000E+00
    -13.469  0.0000E+00  0.0000E+00  0.1000E+00  0.1000E+00
    -13.396  0.0000E+00  0.0000E+00  0.1000E+00  0.1000E+00
    -13.322  0.0000E+00  0.0000E+00  0.1000E+00  0.1000E+00
    -13.248  0.0000E+00  0.0000E+00  0.1000E+00  0.1000E+00
    -13.174  0.0000E+00  0.0000E+00  0.1000E+00  0.1000E+00
    -13.100  0.0000E+00  0.0000E+00  0.1000E+00  0.1000E+00
    -13.027  0.0000E+00  0.0000E+00  0.1000E+00  0.1000E+00
    -12.953  0.0000E+00  0.0000E+00  0.1000E+00  0.1000E+00
    -12.879  0.0000E+00  0.0000E+00  0.1000E+00  0.1000E+00
    -12.805  0.0000E+00  0.0000E+00  0.1000E+00  0.1000E+00
    -12.731  0.0000E+00  0.0000E+00  0.1000E+00  0.1000E+00
    -12.658  0.0000E+00  0.0000E+00  0.1000E+00  0.1000E+00
    -12.584  0.0000E+00  0.0000E+00  0.1000E+00  0.1000E+00
    -12.510  0.0000E+00  0.0000E+00  0.1000E+00  0.1000E+00
    -12.436  0.0000E+00  0.0000E+00  0.1000E+00  0.1000E+00
    -12.362  0.0000E+00  0.0000E+00  0.1000E+00  0.1000E+00
    -12.288  0.0000E+00  0.0000E+00  0.1000E+00  0.1000E+00
    -12.215  0.0000E+00  0.0000E+00  0.1000E+00  0.1000E+00
    -12.141  0.0000E+00  0.0000E+00  0.1000E+00  0.1000E+00
    -12.067  0.0000E+00  0.0000E+00  0.1000E+00  0.1000E+00
    -11.993  0.0000E+00  0.0000E+00  0.1000E+00  0.1000E+00
    -11.919  0.0000E+00  0.0000E+00  0.1000E+00  0.1000E+00
    -11.846  0.0000E+00  0.0000E+00  0.1000E+00  0.1000E+00
    -11.772  0.0000E+00  0.0000E+00  0.1000E+00  0.1000E+00
    -11.698  0.0000E+00  0.0000E+00  0.1000E+00  0.1000E+00
    -11.624  0.0000E+00  0.0000E+00  0.1000E+00  0.1000E+00
    -11.550  0.0000E+00  0.0000E+00  0.1000E+00  0.1000E+00
    -11.477  0.0000E+00  0.0000E+00  0.1000E+00  0.1000E+00
    -11.403  0.0000E+00  0.0000E+00  0.1000E+00  0.1000E+00
    -11.329  0.0000E+00  0.0000E+00  0.1000E+00  0.1000E+00
    -11.255  0.0000E+00  0.0000E+00  0.1000E+00  0.1000E+00
    -11.181  0.0000E+00  0.0000E+00  0.1000E+00  0.1000E+00
    -11.107  0.0000E+00  0.0000E+00  0.1000E+00  0.1000E+00
    -11.034  0.0000E+00  0.0000E+00  0.1000E+00  0.1000E+00
    -10.960  0.0000E+00  0.0000E+00  0.1000E+00  0.1000E+00
    -10.886  0.0000E+00  0.0000E+00  0.1000E+00  0.1000E+00
    -10.812  0.0000E+00  0.0000E+00  0.1000E+00  0.1000E+00
    -10.738  0.0000E+00  0.0000E+00  0.1000E+00  0.1000E+00
    -10.665  0.0000E+00  0.0000E+00  0.1000E+00  0.1000E+00
    -10.591  0.0000E+00  0.0000E+00  0.1000E+00  0.1000E+00
    -10.517  0.0000E+00  0.0000E+00  0.1000E+00  0.1000E+00
    -10.443  0.2256E-15  0.2256E-15  0.1000E+00  0.1000E+00
    -10.369  0.1038E-13  0.1038E-13  0.1000E+00  0.1000E+00
    -10.296  0.5801E-12  0.5796E-12  0.1000E+00  0.1000E+00
    -10.222  0.2439E-10  0.2438E-10  0.1000E+00  0.1000E+00
    -10.148  0.7839E-09  0.7835E-09  0.1000E+00  0.1000E+00
    -10.074  0.1926E-07  0.1925E-07  0.1000E+00  0.1000E+00
    -10.000  0.3618E-06  0.3616E-06  0.1000E+00  0.1000E+00
     -9.926  0.5197E-05  0.5195E-05  0.1000E+00  0.1000E+00
     -9.853  0.5712E-04  0.5710E-04  0.1000E+00  0.1000E+00
     -9.779  0.4804E-03  0.4802E-03  0.1000E+00  0.1000E+00
     -9.705  0.3092E-02  0.3091E-02  0.1003E+00  0.1003E+00
     -9.631  0.1524E-01  0.1524E-01  0.1014E+00  0.1014E+00
     -9.557  0.5750E-01  0.5749E-01  0.1056E+00  0.1056E+00
     -9.484  0.1662E+00  0.1662E+00  0.1179E+00  0.1179E+00
     -9.410  0.3680E+00  0.3679E+00  0.1451E+00  0.1451E+00
     -9.336  0.6241E+00  0.6241E+00  0.1911E+00  0.1911E+00
     -9.262  0.8111E+00  0.8111E+00  0.2510E+00  0.2510E+00
     -9.188  0.8076E+00  0.8076E+00  0.3106E+00  0.3106E+00
     -9.115  0.6162E+00  0.6162E+00  0.3561E+00  0.3561E+00
     -9.041  0.3602E+00  0.3602E+00  0.3827E+00  0.3827E+00
     -8.967  0.1613E+00  0.1613E+00  0.3946E+00  0.3946E+00
     -8.893  0.5534E-01  0.5535E-01  0.3987E+00  0.3987E+00
     -8.819  0.1454E-01  0.1454E-01  0.3997E+00  0.3997E+00
     -8.745  0.2925E-02  0.2926E-02  0.4000E+00  0.4000E+00
     -8.672  0.4506E-03  0.4507E-03  0.4000E+00  0.4000E+00
     -8.598  0.5312E-04  0.5314E-04  0.4000E+00  0.4000E+00
     -8.524  0.4792E-05  0.4794E-05  0.4000E+00  0.4000E+00
     -8.450  0.3307E-06  0.3308E-06  0.4000E+00  0.4000E+00
     -8.376  0.1745E-07  0.1746E-07  0.4000E+00  0.4000E+00
     -8.303  0.7043E-09  0.7047E-09  0.4000E+00  0.4000E+00
     -8.229  0.2173E-10  0.2174E-10  0.4000E+00  0.4000E+00
     -8.155  0.5126E-12  0.5126E-12  0.4000E+00  0.4000E+00
     -8.081  0.9025E-14  0.9025E-14  0.4000E+00  0.4000E+00
     -8.007  0.0000E+00  0.0000E+00  0.4000E+00  0.4000E+00
     -7.934  0.0000E+00  0.0000E+00  0.4000E+00  0.4000E+00
     -7.860  0.0000E+00  0.0000E+00  0.4000E+00  0.4000E+00
     -7.786  0.0000E+00  0.0000E+00  0.4000E+00  0.4000E+00
     -7.712  0.0000E+00  0.0000E+00  0.4000E+00  0.4000E+00
     -7.638  0.0000E+00  0.0000E+00  0.4000E+00  0.4000E+00
     -7.564  0.0000E+00  0.0000E+00  0.4000E+00  0.4000E+00
     -7.491  0.0000E+00  0.0000E+00  0.4000E+00  0.4000E+00
     -7.417  0.0000E+00  0.0000E+00  0.4000E+00  0.4000E+00
     -7.343  0.0000E+00  0.0000E+00  0.4000E+00  0.4000E+00
     -7.269  0.0000E+00  0.0000E+00  0.4000E+00  0.4000E+00
     -7.195  0.0000E+00  0.0000E+00  0.4000E+00  0.4000E+00
     -7.122  0.0000E+00  0.0000E+00  0.4000E+00  0.4000E+00
     -7.048  0.0000E+00  0.0000E+00  0.4000E+00  0.4000E+00
     -6.974  0.0000E+00  0.0000E+00  0.4000E+00  0.4000E+00
     -6.900  0.0000E+00  0.0000E+00  0.4000E+00  0.4000E+00
     -6.826  0.0000E+00  0.0000E+00  0.4000E+00  0.4000E+00
     -6.753  0.0000E+00  0.0000E+00  0.4000E+00  0.4000E+00
     -6.679  0.0000E+00  0.0000E+00  0.4000E+00  0.4000E+00
     -6.605  0.0000E+00  0.0000E+00  0.4000E+00  0.4000E+00
     -6.531  0.0000E+00  0.0000E+00  0.4000E+00  0.4000E+00
     -6.457  0.0000E+00  0.0000E+00  0.4000E+00  0.4000E+00
     -6.383  0.0000E+00  0.0000E+00  0.4000E+00  0.4000E+00
     -6.310  0.0000E+00  0.0000E+00  0.4000E+00  0.4000E+00
     -6.236  0.0000E+00  0.0000E+00  0.4000E+00  0.4000E+00
     -6.162  0.0000E+00  0.0000E+00  0.4000E+00  0.4000E+00
     -6.088  0.0000E+00  0.0000E+00  0.4000E+00  0.4000E+00
     -6.014  0.0000E+00  0.0000E+00  0.4000E+00  0.4000E+00
     -5.941  0.0000E+00  0.0000E+00  0.4000E+00  0.4000E+00
     -5.867  0.0000E+00  0.0000E+00  0.4000E+00  0.4000E+00
     -5.793  0.0000E+00  0.0000E+00  0.4000E+00  0.4000E+00
     -5.719  0.0000E+00  0.0000E+00  0.4000E+00  0.4000E+00
     -5.645  0.0000E+00  0.0000E+00  0.4000E+00  0.4000E+00
     -5.572  0.0000E+00  0.0000E+00  0.4000E+00  0.4000E+00
     -5.498  0.0000E+00  0.0000E+00  0.4000E+00  0.4000E+00
     -5.424  0.0000E+00  0.0000E+00  0.4000E+00  0.4000E+00
     -5.350  0.0000E+00  0.0000E+00  0.4000E+00  0.4000E+00
     -5.276  0.0000E+00  0.0000E+00  0.4000E+00  0.4000E+00
     -5.202  0.0000E+00  0.0000E+00  0.4000E+00  0.4000E+00
     -5.129  0.0000E+00  0.0000E+00  0.4000E+00  0.4000E+00
     -5.055  0.0000E+00  0.0000E+00  0.4000E+00  0.4000E+00
     -4.981  0.0000E+00  0.0000E+00  0.4000E+00  0.4000E+00
     -4.907  0.0000E+00  0.0000E+00  0.4000E+00  0.4000E+00
     -4.833  0.0000E+00  0.0000E+00  0.4000E+00  0.4000E+00
     -4.760  0.0000E+00  0.0000E+00  0.4000E+00  0.4000E+00
     -4.686  0.0000E+00  0.0000E+00  0.4000E+00  0.4000E+00
     -4.612  0.0000E+00  0.0000E+00  0.4000E+00  0.4000E+00
     -4.538  0.0000E+00  0.0000E+00  0.4000E+00  0.4000E+00
     -4.464  0.0000E+00  0.0000E+00  0.4000E+00  0.4000E+00
     -4.391  0.0000E+00  0.0000E+00  0.4000E+00  0.4000E+00
     -4.317  0.0000E+00  0.0000E+00  0.4000E+00  0.4000E+00
     -4.243  0.0000E+00  0.0000E+00  0.4000E+00  0.4000E+00
     -4.169  0.0000E+00  0.0000E+00  0.4000E+00  0.4000E+00
     -4.095  0.0000E+00  0.0000E+00  0.4000E+00  0.4000E+00
     -4.022  0.0000E+00  0.0000E+00  0.4000E+00  0.4000E+00
     -3.948  0.0000E+00  0.0000E+00  0.4000E+00  0.4000E+00
     -3.874  0.0000E+00  0.0000E+00  0.4000E+00  0.4000E+00
     -3.800  0.0000E+00  0.0000E+00  0.4000E+00  0.4000E+00
     -3.726  0.0000E+00  0.0000E+00  0.4000E+00  0.4000E+00
     -3.652  0.0000E+00  0.0000E+00  0.4000E+00  0.4000E+00
     -3.579  0.0000E+00  0.0000E+00  0.4000E+00  0.4000E+00
     -3.505  0.0000E+00  0.0000E+00  0.4000E+00  0.4000E+00
     -3.431  0.0000E+00  0.0000E+00  0.4000E+00  0.4000E+00
     -3.357  0.0000E+00  0.0000E+00  0.4000E+00  0.4000E+00
     -3.283  0.0000E+00  0.0000E+00  0.4000E+00  0.4000E+00
     -3.210  0.0000E+00  0.0000E+00  0.4000E+00  0.4000E+00
     -3.136  0.0000E+00  0.0000E+00  0.4000E+00  0.4000E+00
     -3.062  0.0000E+00  0.0000E+00  0.4000E+00  0.4000E+00
     -2.988  0.0000E+00  0.0000E+00  0.4000E+00  0.4000E+00
     -2.914  0.0000E+00  0.0000E+00  0.4000E+00  0.4000E+00
     -2.841  0.0000E+00  0.0000E+00  0.4000E+00  0.4000E+00
     -2.767  0.0000E+00  0.0000E+00  0.4000E+00  0.4000E+00
     -2.693  0.0000E+00  0.0000E+00  0.4000E+00  0.4000E+00
     -2.619  0.0000E+00  0.0000E+00  0.4000E+00  0.4000E+00
     -2.545  0.0000E+00  0.0000E+00  0.4000E+00  0.4000E+00
     -2.471  0.0000E+00  0.0000E+00  0.4000E+00  0.4000E+00
     -2.398  0.0000E+00  0.0000E+00  0.4000E+00  0.4000E+00
     -2.324  0.0000E+00  0.0000E+00  0.4000E+00  0.4000E+00
     -2.250  0.0000E+00  0.0000E+00  0.4000E+00  0.4000E+00
     -2.176  0.0000E+00  0.0000E+00  0.4000E+00  0.4000E+00
     -2.102  0.0000E+00  0.0000E+00  0.4000E+00  0.4000E+00
     -2.029  0.0000E+00  0.0000E+00  0.4000E+00  0.4000E+00
     -1.955  0.0000E+00  0.0000E+00  0.4000E+00  0.4000E+00
     -1.881  0.0000E+00  0.0000E+00  0.4000E+00  0.4000E+00
     -1.807  0.0000E+00  0.0000E+00  0.4000E+00  0.4000E+00
     -1.733  0.0000E+00  0.0000E+00  0.4000E+00  0.4000E+00
     -1.660  0.4512E-15  0.3760E-15  0.4000E+00  0.4000E+00
     -1.586  0.2895E-13  0.2407E-13  0.4000E+00  0.4000E+00
     -1.512  0.1386E-11  0.1166E-11  0.4000E+00  0.4000E+00
     -1.438  0.5070E-10  0.4318E-10  0.4000E+00  0.4000E+00
     -1.364  0.1418E-08  0.1223E-08  0.4000E+00  0.4000E+00
     -1.290  0.3031E-07  0.2646E-07  0.4000E+00  0.4000E+00
     -1.217  0.4956E-06  0.4381E-06  0.4000E+00  0.4000E+00
     -1.143  0.6198E-05  0.5546E-05  0.4000E+00  0.4000E+00
     -1.069  0.5930E-04  0.5373E-04  0.4000E+00  0.4000E+00
     -0.995  0.4342E-03  0.3983E-03  0.4000E+00  0.4000E+00
     -0.921  0.2434E-02  0.2261E-02  0.4002E+00  0.4002E+00
     -0.848  0.1045E-01  0.9823E-02  0.4010E+00  0.4009E+00
     -0.774  0.3433E-01  0.3269E-01  0.4035E+00  0.4033E+00
     -0.700  0.8644E-01  0.8331E-01  0.4099E+00  0.4095E+00
     -0.626  0.1667E+00  0.1627E+00  0.4222E+00  0.4215E+00
     -0.552  0.2463E+00  0.2433E+00  0.4404E+00  0.4395E+00
     -0.479  0.2789E+00  0.2789E+00  0.4610E+00  0.4600E+00
     -0.405  0.2419E+00  0.2450E+00  0.4788E+00  0.4781E+00
     -0.331  0.1608E+00  0.1648E+00  0.4907E+00  0.4903E+00
     -0.257  0.8189E-01  0.8498E-01  0.4967E+00  0.4966E+00
     -0.183  0.3194E-01  0.3356E-01  0.4991E+00  0.4990E+00
     -0.109  0.9545E-02  0.1015E-01  0.4998E+00  0.4998E+00
     -0.036  0.2184E-02  0.2352E-02  0.5000E+00  0.5000E+00
      0.038  0.3827E-03  0.4173E-03  0.5000E+00  0.5000E+00
      0.112  0.5178E-04  0.5708E-04  0.5000E+00  0.5000E+00
      0.186  0.1099E-04  0.1122E-04  0.5000E+00  0.5000E+00
      0.260  0.5563E-04  0.5239E-04  0.5000E+00  0.5000E+00
      0.333  0.4083E-03  0.3869E-03  0.5000E+00  0.5000E+00
      0.407  0.2313E-02  0.2208E-02  0.5002E+00  0.5002E+00
      0.481  0.1006E-01  0.9673E-02  0.5009E+00  0.5009E+00
      0.555  0.3370E-01  0.3263E-01  0.5034E+00  0.5033E+00
      0.629  0.8775E-01  0.8548E-01  0.5099E+00  0.5096E+00
      0.702  0.1811E+00  0.1772E+00  0.5233E+00  0.5227E+00
      0.776  0.3082E+00  0.3019E+00  0.5460E+00  0.5450E+00
      0.850  0.4605E+00  0.4506E+00  0.5800E+00  0.5783E+00
      0.924  0.6401E+00  0.6265E+00  0.6273E+00  0.6245E+00
      0.998  0.8321E+00  0.8183E+00  0.6887E+00  0.6849E+00
      1.072  0.9668E+00  0.9596E+00  0.7600E+00  0.7557E+00
      1.145  0.9647E+00  0.9678E+00  0.8312E+00  0.8272E+00
      1.219  0.8236E+00  0.8341E+00  0.8920E+00  0.8887E+00
      1.293  0.6161E+00  0.6288E+00  0.9375E+00  0.9351E+00
      1.367  0.4120E+00  0.4236E+00  0.9679E+00  0.9664E+00
      1.441  0.2430E+00  0.2523E+00  0.9859E+00  0.9850E+00
      1.514  0.1215E+00  0.1277E+00  0.9948E+00  0.9945E+00
      1.588  0.4938E-01  0.5264E-01  0.9985E+00  0.9983E+00
      1.662  0.1585E-01  0.1717E-01  0.9996E+00  0.9996E+00
      1.736  0.3956E-02  0.4356E-02  0.9999E+00  0.9999E+00
      1.810  0.7614E-03  0.8526E-03  0.1000E+01  0.1000E+01
      1.883  0.1125E-03  0.1282E-03  0.1000E+01  0.1000E+01
      1.957  0.1275E-04  0.1477E-04  0.1000E+01  0.1000E+01
      2.031  0.1106E-05  0.1304E-05  0.1000E+01  0.1000E+01
      2.105  0.7344E-07  0.8804E-07  0.1000E+01  0.1000E+01
      2.179  0.3729E-08  0.4548E-08  0.1000E+01  0.1000E+01
      2.253  0.1448E-09  0.1796E-09  0.1000E+01  0.1000E+01
      2.326  0.4297E-11  0.5423E-11  0.1000E+01  0.1000E+01
      2.400  0.9747E-13  0.1251E-12  0.1000E+01  0.1000E+01
      2.474  0.1805E-14  0.2256E-14  0.1000E+01  0.1000E+01
      2.548  0.0000E+00  0.0000E+00  0.1000E+01  0.1000E+01
      2.622  0.0000E+00  0.0000E+00  0.1000E+01  0.1000E+01
      2.695  0.0000E+00  0.0000E+00  0.1000E+01  0.1000E+01
      2.769  0.0000E+00  0.0000E+00  0.1000E+01  0.1000E+01
      2.843  0.0000E+00  0.0000E+00  0.1000E+01  0.1000E+01
      2.917  0.0000E+00  0.0000E+00  0.1000E+01  0.1000E+01
      2.991  0.0000E+00  0.0000E+00  0.1000E+01  0.1000E+01
      3.064  0.0000E+00  0.0000E+00  0.1000E+01  0.1000E+01
      3.138  0.0000E+00  0.0000E+00  0.1000E+01  0.1000E+01
      3.212  0.0000E+00  0.0000E+00  0.1000E+01  0.1000E+01
      3.286  0.0000E+00  0.0000E+00  0.1000E+01  0.1000E+01
