    5    5   10    2
  0.2000000E+03  0.1000000E-08  0.1000000E-08  0.1000000E-08  0.5000000E-15
  1.000000000000000E-004
  CAR 
 unknown system                          
    8    1   10
 
  0.0000000E+00  0.0000000E+00  0.0000000E+00  0.1000000E+01
   1      -16.857721    -16.857679
   2       -9.263339     -9.263328
   3       -9.263339     -9.263328
   4       -9.263339     -9.263328
   5       -0.517929     -0.514513
   6        0.813177      0.815297
   7        1.063827      1.068274
   8        1.063827      1.068274
   9        1.063827      1.068274
  10        1.281173      1.285889
