       N       E                     dE             d eps       ncg     rms          rms(c)
DAV:   1     0.233079912955E+02    0.23308E+02   -0.18053E+03    56   0.281E+02
DAV:   2    -0.139416823801E+02   -0.37250E+02   -0.30526E+02    62   0.698E+01
DAV:   3    -0.196405154806E+02   -0.56988E+01   -0.56870E+01    64   0.332E+01
DAV:   4    -0.199031937280E+02   -0.26268E+00   -0.26266E+00    62   0.649E+00
DAV:   5    -0.199070755182E+02   -0.38818E-02   -0.38818E-02    54   0.721E-01    0.151E+01
DAV:   6    -0.851126180660E+01    0.11396E+02   -0.39956E+01    50   0.339E+01    0.600E+00
DAV:   7    -0.196708213808E+02   -0.11160E+02   -0.10046E+01    60   0.147E+01    0.310E+00
DAV:   8    -0.220973920533E+02   -0.24266E+01   -0.49769E-01    40   0.399E+00    0.160E+00
DAV:   9    -0.238650364174E+02   -0.17676E+01   -0.11725E+00    60   0.452E+00    0.334E-01
DAV:  10    -0.239731919050E+02   -0.10816E+00   -0.28682E-02    44   0.919E-01    0.134E-01
DAV:  11    -0.239757672760E+02   -0.25754E-02   -0.46276E-03    40   0.489E-01    0.108E-01
DAV:  12    -0.239646699041E+02    0.11097E-01   -0.56060E-03    40   0.409E-01    0.534E-02
DAV:  13    -0.239711816071E+02   -0.65117E-02   -0.74788E-04    40   0.131E-01    0.353E-02
DAV:  14    -0.239803164282E+02   -0.91348E-02   -0.11624E-03    40   0.154E-01    0.237E-02
DAV:  15    -0.239802527845E+02    0.63644E-04   -0.50571E-04    40   0.122E-01
   1 F= -.23980253E+02 E0= -.23980253E+02  d E =-.239803E+02  mag=     0.0054
       N       E                     dE             d eps       ncg     rms          rms(c)
DAV:   1    -0.239941052674E+02   -0.13789E-01   -0.43109E-01    40   0.461E+00    0.358E-01
DAV:   2    -0.239904539246E+02    0.36513E-02   -0.10992E-02    60   0.567E-01    0.138E-01
DAV:   3    -0.239905537730E+02   -0.99848E-04   -0.56970E-03    50   0.349E-01    0.564E-02
DAV:   4    -0.239905571269E+02   -0.33539E-05   -0.33509E-05    50   0.382E-02
   2 F= -.23990557E+02 E0= -.23990557E+02  d E =-.103043E-01  mag=     0.0005
       N       E                     dE             d eps       ncg     rms          rms(c)
DAV:   1    -0.239923058981E+02   -0.17521E-02   -0.12884E-02    40   0.820E-01    0.806E-02
DAV:   2    -0.239921995044E+02    0.10639E-03   -0.61535E-04    40   0.124E-01    0.258E-02
DAV:   3    -0.239923128776E+02   -0.11337E-03   -0.24598E-04    40   0.828E-02    0.986E-03
DAV:   4    -0.239923439061E+02   -0.31029E-04   -0.87716E-06    40   0.234E-02
   3 F= -.23992344E+02 E0= -.23992344E+02  d E =-.120911E-01  mag=     0.0000
