<?xml version="1.0" encoding="ISO-8859-1"?>
<modeling>
 <generator>
  <i name="program" type="string">vasp </i>
  <i name="version" type="string">5.2.12  </i>
  <i name="subversion" type="string">11Nov11 complex                                                      parallel </i>
  <i name="platform" type="string">LinuxIFC </i>
  <i name="date" type="string">2012 10 31 </i>
  <i name="time" type="string">13:05:25 </i>
 </generator>
 <incar>
  <i type="string" name="PREC">normal</i>
  <i type="int" name="ISPIN">     2</i>
  <i type="int" name="IBRION">     2</i>
  <i type="int" name="NSW">    10</i>
  <i name="ENCUT">    350.00000000</i>
  <i type="int" name="NBANDS">    10</i>
  <i type="int" name="ISMEAR">     0</i>
 </incar>
 <kpoints>
  <generation param="Monkhorst-Pack">
   <v type="int" name="divisions">       1        1        1 </v>
   <v name="usershift">      0.00000000       0.00000000       0.00000000 </v>
   <v name="genvec1">      1.00000000       0.00000000       0.00000000 </v>
   <v name="genvec2">      0.00000000       1.00000000       0.00000000 </v>
   <v name="genvec3">      0.00000000       0.00000000       1.00000000 </v>
   <v name="shift">      0.00000000       0.00000000       0.00000000 </v>
  </generation>
  <varray name="kpointlist" >
   <v>       0.00000000       0.00000000       0.00000000 </v>
  </varray>
  <varray name="weights" >
   <v>       1.00000000 </v>
  </varray>
 </kpoints>
 <parameters>
  <separator name="general" >
   <i type="string" name="SYSTEM">unknown system</i>
   <i type="logical" name="LCOMPAT"> F  </i>
  </separator>
  <separator name="electronic" >
   <i type="string" name="PREC">normal</i>
   <i name="ENMAX">    350.00000000</i>
   <i name="ENAUG">    644.87300000</i>
   <i name="EDIFF">      0.00010000</i>
   <i type="int" name="IALGO">    38</i>
   <i type="int" name="IWAVPR">    11</i>
   <i type="int" name="NBANDS">    10</i>
   <i name="NELECT">      8.00000000</i>
   <i type="int" name="TURBO">     0</i>
   <i type="int" name="IRESTART">     0</i>
   <i type="int" name="NREBOOT">     0</i>
   <i type="int" name="NMIN">     0</i>
   <i name="EREF">      0.00000000</i>
   <separator name="electronic smearing" >
    <i type="int" name="ISMEAR">     0</i>
    <i name="SIGMA">      0.20000000</i>
    <i name="KSPACING">      0.50000000</i>
    <i type="logical" name="KGAMMA"> T  </i>
   </separator>
   <separator name="electronic projectors" >
    <i type="logical" name="LREAL"> F  </i>
    <v name="ROPT">      0.00000000      0.00000000</v>
    <i type="int" name="LMAXPAW">  -100</i>
    <i type="int" name="LMAXMIX">     2</i>
    <i type="logical" name="NLSPLINE"> F  </i>
   </separator>
   <separator name="electronic startup" >
    <i type="int" name="ISTART">     0</i>
    <i type="int" name="ICHARG">     2</i>
    <i type="int" name="INIWAV">     1</i>
   </separator>
   <separator name="electronic spin" >
    <i type="int" name="ISPIN">     2</i>
    <i type="logical" name="LNONCOLLINEAR"> F  </i>
    <v name="MAGMOM">      1.00000000      1.00000000      1.00000000      1.00000000      1.00000000</v>
    <i name="NUPDOWN">     -1.00000000</i>
    <i type="logical" name="LSORBIT"> F  </i>
    <v name="SAXIS">      0.00000000      0.00000000      1.00000000</v>
    <i type="logical" name="LSPIRAL"> F  </i>
    <v name="QSPIRAL">      0.00000000      0.00000000      0.00000000</v>
    <i type="logical" name="LZEROZ"> F  </i>
   </separator>
   <separator name="electronic exchange-correlation" >
    <i type="logical" name="LASPH"> F  </i>
    <i type="logical" name="LMETAGGA"> F  </i>
   </separator>
   <separator name="electronic convergence" >
    <i type="int" name="NELM">    60</i>
    <i type="int" name="NELMDL">    -5</i>
    <i type="int" name="NELMIN">     2</i>
    <i name="ENINI">    350.00000000</i>
    <separator name="electronic convergence detail" >
     <i type="logical" name="LDIAG"> T  </i>
     <i type="logical" name="LSUBROT"> T  </i>
     <i name="WEIMIN">      0.00100000</i>
     <i name="EBREAK">      0.00000250</i>
     <i name="DEPER">      0.30000000</i>
     <i type="int" name="NRMM">     4</i>
     <i name="TIME">      0.40000000</i>
    </separator>
   </separator>
   <separator name="electronic mixer" >
    <i name="AMIX">      0.40000000</i>
    <i name="BMIX">      1.00000000</i>
    <i name="AMIN">      0.10000000</i>
    <i name="AMIX_MAG">      1.60000000</i>
    <i name="BMIX_MAG">      1.00000000</i>
    <separator name="electronic mixer details" >
     <i type="int" name="IMIX">     4</i>
     <i type="int" name="MAXMIX">   -45</i>
     <i name="WC">    100.00000000</i>
     <i type="int" name="INIMIX">     1</i>
     <i type="int" name="MIXPRE">     1</i>
     <i type="int" name="MREMOVE">     5</i>
    </separator>
   </separator>
   <separator name="electronic dipolcorrection" >
    <i type="logical" name="LDIPOL"> F  </i>
    <i type="logical" name="LMONO"> F  </i>
    <i type="int" name="IDIPOL">     0</i>
    <i name="EPSILON">      1.00000000</i>
    <v name="DIPOL">   -100.00000000   -100.00000000   -100.00000000</v>
    <i name="EFIELD">      0.00000000</i>
   </separator>
  </separator>
  <separator name="grids" >
   <i type="int" name="NGX">    48</i>
   <i type="int" name="NGY">    48</i>
   <i type="int" name="NGZ">    48</i>
   <i type="int" name="NGXF">    96</i>
   <i type="int" name="NGYF">    96</i>
   <i type="int" name="NGZF">    96</i>
   <i type="logical" name="ADDGRID"> F  </i>
  </separator>
  <separator name="ionic" >
   <i type="int" name="NSW">    10</i>
   <i type="int" name="IBRION">     2</i>
   <i type="int" name="ISIF">     2</i>
   <i name="PSTRESS">      0.00000000</i>
   <i name="EDIFFG">      0.00100000</i>
   <i type="int" name="NFREE">     1</i>
   <i name="POTIM">      0.50000000</i>
   <i name="SMASS">     -3.00000000</i>
   <i name="SCALEE">      1.00000000</i>
  </separator>
  <separator name="ionic md" >
   <i name="TEBEG">      0.00010000</i>
   <i name="TEEND">      0.00010000</i>
   <i type="int" name="NBLOCK">     1</i>
   <i type="int" name="KBLOCK">    10</i>
   <i type="int" name="NPACO">   256</i>
   <i name="APACO">     16.00000000</i>
  </separator>
  <separator name="symmetry" >
   <i type="int" name="ISYM">     2</i>
   <i name="SYMPREC">      0.00001000</i>
  </separator>
  <separator name="dos" >
   <i type="logical" name="LORBIT"> F  </i>
   <v name="RWIGS">     -1.00000000     -1.00000000</v>
   <i type="int" name="NEDOS">   301</i>
   <i name="EMIN">     10.00000000</i>
   <i name="EMAX">    -10.00000000</i>
   <i name="EFERMI">      0.00000000</i>
  </separator>
  <separator name="writing" >
   <i type="int" name="NWRITE">     2</i>
   <i type="logical" name="LWAVE"> T  </i>
   <i type="logical" name="LCHARG"> T  </i>
   <i type="logical" name="LPARD"> F  </i>
   <i type="logical" name="LVTOT"> F  </i>
   <i type="logical" name="LVHAR"> F  </i>
   <i type="logical" name="LELF"> F  </i>
   <i type="logical" name="LOPTICS"> F  </i>
   <v name="STM">      0.00000000      0.00000000      0.00000000      0.00000000      0.00000000      0.00000000      0.00000000</v>
  </separator>
  <separator name="performance" >
   <i type="int" name="NPAR">     1</i>
   <i type="int" name="NSIM">     4</i>
   <i type="int" name="NBLK">    -1</i>
   <i type="logical" name="LPLANE"> T  </i>
   <i type="logical" name="LSCALAPACK"> F  </i>
   <i type="logical" name="LSCAAWARE"> F  </i>
   <i type="logical" name="LSCALU"> F  </i>
   <i type="logical" name="LASYNC"> F  </i>
   <i type="logical" name="LORBITALREAL"> F  </i>
  </separator>
  <separator name="miscellaneous" >
   <i type="int" name="IDIOT">     3</i>
   <i type="logical" name="LMUSIC"> F  </i>
   <v name="POMASS">      1.00000000     12.01100000</v>
   <v name="DARWINR">      0.00000000      0.00000000</v>
   <v name="DARWINV">      1.00000000      1.00000000</v>
   <i type="logical" name="LCORR"> T  </i>
  </separator>
  <i type="logical" name="GGA_COMPAT"> T  </i>
  <i type="logical" name="LBERRY"> F  </i>
  <i type="int" name="ICORELEVEL">     0</i>
  <i type="logical" name="LDAU"> F  </i>
  <i type="int" name="I_CONSTRAINED_M">     0</i>
  <separator name="electronic exchange-correlation" >
   <i type="string" name="GGA">--</i>
   <i type="int" name="VOSKOWN">     0</i>
   <i type="logical" name="LHFCALC"> F  </i>
   <i type="string" name="PRECFOCK"></i>
   <i type="logical" name="LHFONE"> F  </i>
   <i type="logical" name="LRHFCALC"> F  </i>
   <i type="logical" name="LTHOMAS"> F  </i>
   <i type="logical" name="LMODELHF"> F  </i>
   <i name="ENCUT4O">     -1.00000000</i>
   <i type="int" name="EXXOEP">     0</i>
   <i type="int" name="FOURORBIT">     0</i>
   <i name="AEXX">      0.00000000</i>
   <i name="HFALPHA">      0.00000000</i>
   <i name="ALDAX">      1.00000000</i>
   <i name="AGGAX">      1.00000000</i>
   <i name="ALDAC">      1.00000000</i>
   <i name="AGGAC">      1.00000000</i>
   <i type="int" name="NKREDX">     1</i>
   <i type="int" name="NKREDY">     1</i>
   <i type="int" name="NKREDZ">     1</i>
   <i type="logical" name="SHIFTRED"> F  </i>
   <i type="logical" name="ODDONLY"> F  </i>
   <i type="logical" name="EVENONLY"> F  </i>
   <i type="int" name="LMAXFOCK">     0</i>
   <i type="int" name="NMAXFOCKAE">     0</i>
   <i type="logical" name="LFOCKAEDFT"> F  </i>
   <i name="HFSCREEN">      0.00000000</i>
   <i name="HFSCREENC">      0.00000000</i>
  </separator>
  <separator name="vdW DFT" >
   <i type="logical" name="LUSE_VDW"> F  </i>
   <i name="Zab_VDW">     -0.84910000</i>
   <i name="PARAM1">      0.12340000</i>
   <i name="PARAM2">      1.00000000</i>
   <i name="PARAM3">      0.00000000</i>
  </separator>
  <separator name="model GW" >
   <i type="int" name="MODEL_GW">     0</i>
   <i name="MODEL_EPS0">    120.00000000</i>
   <i name="MODEL_ALPHA">      1.00000000</i>
  </separator>
  <separator name="linear response parameters" >
   <i type="logical" name="LEPSILON"> F  </i>
   <i type="logical" name="LRPA"> F  </i>
   <i type="logical" name="LNABLA"> F  </i>
   <i type="logical" name="LVEL"> F  </i>
   <i type="int" name="KINTER">     0</i>
   <i name="CSHIFT">      0.10000000</i>
   <i name="OMEGAMAX">     -1.00000000</i>
  </separator>
  <separator name="orbital magnetization" >
   <i type="logical" name="NUCIND"> F  </i>
   <v name="MAGPOS">      0.00000000      0.00000000      0.00000000</v>
   <i type="logical" name="LNICSALL"> T  </i>
   <i type="logical" name="ORBITALMAG"> F  </i>
   <i type="logical" name="LMAGBLOCH"> F  </i>
   <i type="logical" name="LCHIMAG"> F  </i>
   <i type="logical" name="LGAUGE"> T  </i>
   <i type="int" name="MAGATOM">     0</i>
   <v name="MAGDIPOL">      0.00000000      0.00000000      0.00000000</v>
   <v name="AVECCONST">      0.00000000      0.00000000      0.00000000</v>
  </separator>
  <separator name="response functions" >
   <i type="logical" name="LADDER"> F  </i>
   <i type="logical" name="LHARTREE"> T  </i>
   <i type="int" name="IBSE">     0</i>
   <i type="logical" name="LTCTE"> F  </i>
   <i type="logical" name="LTETE"> F  </i>
   <i type="logical" name="LFXCEPS"> F  </i>
   <i type="logical" name="L2ORDER"> F  </i>
   <i type="logical" name="LUSEW"> F  </i>
   <i name="ENCUTGW">     -2.00000000</i>
   <i name="ENCUTGWSOFT">     -2.00000000</i>
   <i name="ENCUTLF">     -1.00000000</i>
   <i type="int" name="LMAXMP2">    -1</i>
   <i name="SCISSOR">      0.00000000</i>
   <i type="int" name="NOMEGA">     0</i>
   <i type="int" name="NOMEGAR">     0</i>
   <i type="int" name="NBANDSGW">    -1</i>
   <i type="int" name="NBANDSO">    -1</i>
   <i type="int" name="NBANDSV">    -1</i>
   <i name="OPTEMAX">      0.00000000</i>
   <i type="int" name="NELM">     1</i>
   <i type="int" name="DIM">     3</i>
   <i type="int" name="ANTIRES">     0</i>
   <i name="OMEGAMAX">    -30.00000000</i>
   <i name="OMEGATL">   -200.00000000</i>
   <i type="int" name="OMEGAGRID">     0</i>
   <i name="CSHIFT">     -0.10000000</i>
   <i type="logical" name="SELFENERGY"> F  </i>
   <i type="logical" name="LSPECTRAL"> F  </i>
   <i type="logical" name="ODDONLYGW"> F  </i>
   <i type="logical" name="EVENONLYGW"> F  </i>
   <i type="int" name="NKREDLFX">     1</i>
   <i type="int" name="NKREDLFY">     1</i>
   <i type="int" name="NKREDLFZ">     1</i>
   <i type="int" name="MAXMEM">  1800</i>
   <i type="int" name="TELESCOPE">     0</i>
  </separator>
 </parameters>
 <atominfo>
  <atoms>       5 </atoms>
  <types>       2 </types>
  <array name="atoms" >
   <dimension dim="1">ion</dimension>
   <field type="string">element</field>
   <field type="int">atomtype</field>
   <set>
    <rc><c>H </c><c>   1</c></rc>
    <rc><c>H </c><c>   1</c></rc>
    <rc><c>H </c><c>   1</c></rc>
    <rc><c>H </c><c>   1</c></rc>
    <rc><c>C </c><c>   2</c></rc>
   </set>
  </array>
  <array name="atomtypes" >
   <dimension dim="1">type</dimension>
   <field type="int">atomspertype</field>
   <field type="string">element</field>
   <field>mass</field>
   <field>valence</field>
   <field type="string">pseudopotential</field>
   <set>
    <rc><c>   4</c><c>H </c><c>      1.00000000</c><c>      1.00000000</c><c> PAW_PBE H 15Jun2001                    </c></rc>
    <rc><c>   1</c><c>C </c><c>     12.01100000</c><c>      4.00000000</c><c> PAW_PBE C 08Apr2002                    </c></rc>
   </set>
  </array>
 </atominfo>
 <structure name="initialpos" >
  <crystal>
   <varray name="basis" >
    <v>      10.00000000       0.00000000       0.00000000 </v>
    <v>       0.00000000      10.00000000       0.00000000 </v>
    <v>       0.00000000       0.00000000      10.00000000 </v>
   </varray>
   <i name="volume">   1000.00000000 </i>
   <varray name="rec_basis" >
    <v>       0.10000000       0.00000000       0.00000000 </v>
    <v>       0.00000000       0.10000000       0.00000000 </v>
    <v>       0.00000000       0.00000000       0.10000000 </v>
   </varray>
  </crystal>
  <varray name="positions" >
   <v>       0.56291180       0.56291180       0.56291180 </v>
   <v>       0.43708820       0.43708820       0.56291180 </v>
   <v>       0.56291180       0.43708820       0.43708820 </v>
   <v>       0.43708820       0.56291180       0.43708820 </v>
   <v>       0.50000000       0.50000000       0.50000000 </v>
  </varray>
 </structure>
 <calculation>
  <scstep>
   <time name="dav">    1.89    1.89</time>
   <time name="total">    5.23    5.23</time>
   <energy>
    <i name="alphaZ">      0.24091877 </i>
    <i name="ewald">    130.38422544 </i>
    <i name="hartreedc">   -244.82418235 </i>
    <i name="XCdc">     24.21206669 </i>
    <i name="pawpsdc">     39.78217940 </i>
    <i name="pawaedc">    -40.95774578 </i>
    <i name="eentropy">     -0.02740792 </i>
    <i name="bandstr">    -82.44521881 </i>
    <i name="atom">    196.94315586 </i>
    <i name="e_fr_energy">     23.30799130 </i>
    <i name="e_wo_entrp">     23.33539922 </i>
    <i name="e_0_energy">     23.32169526 </i>
   </energy>
  </scstep>
  <scstep>
   <time name="dav">    2.04    2.04</time>
   <time name="total">    2.04    2.19</time>
   <energy>
    <i name="e_fr_energy">    -13.94168238 </i>
    <i name="e_wo_entrp">    -13.94168238 </i>
    <i name="e_0_energy">    -13.94168238 </i>
   </energy>
  </scstep>
  <scstep>
   <time name="dav">    2.20    2.20</time>
   <time name="total">    2.20    2.21</time>
   <energy>
    <i name="e_fr_energy">    -19.64051548 </i>
    <i name="e_wo_entrp">    -19.64051548 </i>
    <i name="e_0_energy">    -19.64051548 </i>
   </energy>
  </scstep>
  <scstep>
   <time name="dav">    2.06    2.07</time>
   <time name="total">    2.06    2.08</time>
   <energy>
    <i name="e_fr_energy">    -19.90319373 </i>
    <i name="e_wo_entrp">    -19.90319373 </i>
    <i name="e_0_energy">    -19.90319373 </i>
   </energy>
  </scstep>
  <scstep>
   <time name="dav">    1.82    1.82</time>
   <time name="total">    2.24    2.33</time>
   <energy>
    <i name="e_fr_energy">    -19.90707552 </i>
    <i name="e_wo_entrp">    -19.90707552 </i>
    <i name="e_0_energy">    -19.90707552 </i>
   </energy>
  </scstep>
  <scstep>
   <time name="dav">    1.74    1.74</time>
   <time name="total">    5.63    5.65</time>
   <energy>
    <i name="e_fr_energy">     -8.51126181 </i>
    <i name="e_wo_entrp">     -8.51126181 </i>
    <i name="e_0_energy">     -8.51126181 </i>
   </energy>
  </scstep>
  <scstep>
   <time name="dav">    2.07    2.07</time>
   <time name="total">    5.91    5.93</time>
   <energy>
    <i name="e_fr_energy">    -19.67082138 </i>
    <i name="e_wo_entrp">    -19.67082138 </i>
    <i name="e_0_energy">    -19.67082138 </i>
   </energy>
  </scstep>
  <scstep>
   <time name="dav">    1.46    1.46</time>
   <time name="total">    5.35    5.36</time>
   <energy>
    <i name="e_fr_energy">    -22.09739205 </i>
    <i name="e_wo_entrp">    -22.09739205 </i>
    <i name="e_0_energy">    -22.09739205 </i>
   </energy>
  </scstep>
  <scstep>
   <time name="dav">    1.99    1.99</time>
   <time name="total">    5.88    5.90</time>
   <energy>
    <i name="e_fr_energy">    -23.86503642 </i>
    <i name="e_wo_entrp">    -23.86503642 </i>
    <i name="e_0_energy">    -23.86503642 </i>
   </energy>
  </scstep>
  <scstep>
   <time name="dav">    2.15    2.15</time>
   <time name="total">    6.98    7.05</time>
   <energy>
    <i name="e_fr_energy">    -23.97319190 </i>
    <i name="e_wo_entrp">    -23.97319190 </i>
    <i name="e_0_energy">    -23.97319190 </i>
   </energy>
  </scstep>
  <scstep>
   <time name="dav">    2.02    2.02</time>
   <time name="total">    6.97    6.99</time>
   <energy>
    <i name="e_fr_energy">    -23.97576728 </i>
    <i name="e_wo_entrp">    -23.97576728 </i>
    <i name="e_0_energy">    -23.97576728 </i>
   </energy>
  </scstep>
  <scstep>
   <time name="dav">    2.08    2.08</time>
   <time name="total">    7.06    7.08</time>
   <energy>
    <i name="e_fr_energy">    -23.96466990 </i>
    <i name="e_wo_entrp">    -23.96466990 </i>
    <i name="e_0_energy">    -23.96466990 </i>
   </energy>
  </scstep>
  <scstep>
   <time name="dav">    2.02    2.02</time>
   <time name="total">    6.95    6.97</time>
   <energy>
    <i name="e_fr_energy">    -23.97118161 </i>
    <i name="e_wo_entrp">    -23.97118161 </i>
    <i name="e_0_energy">    -23.97118161 </i>
   </energy>
  </scstep>
  <scstep>
   <time name="dav">    1.98    1.98</time>
   <time name="total">    6.86    6.87</time>
   <energy>
    <i name="e_fr_energy">    -23.98031643 </i>
    <i name="e_wo_entrp">    -23.98031643 </i>
    <i name="e_0_energy">    -23.98031643 </i>
   </energy>
  </scstep>
  <scstep>
   <time name="dav">    2.00    2.00</time>
   <time name="total">    6.23    6.24</time>
   <energy>
    <i name="alphaZ">      0.24091877 </i>
    <i name="ewald">    130.38422544 </i>
    <i name="hartreedc">   -285.80547521 </i>
    <i name="XCdc">     25.42998404 </i>
    <i name="pawpsdc">     91.06910845 </i>
    <i name="pawaedc">    -92.44991861 </i>
    <i name="eentropy">      0.00000000 </i>
    <i name="bandstr">    -89.79225152 </i>
    <i name="atom">    196.94315586 </i>
    <i name="e_fr_energy">    -23.98025278 </i>
    <i name="e_wo_entrp">    -23.98025278 </i>
    <i name="e_0_energy">    -23.98025278 </i>
   </energy>
  </scstep>
  <parameters_embedded>
   <separator name="dft+d2" >
    <i type="logical" name="LVDW"> F  </i>
   </separator>
  </parameters_embedded>
  <structure>
   <crystal>
    <varray name="basis" >
     <v>      10.00000000       0.00000000       0.00000000 </v>
     <v>       0.00000000      10.00000000       0.00000000 </v>
     <v>       0.00000000       0.00000000      10.00000000 </v>
    </varray>
    <i name="volume">   1000.00000000 </i>
    <varray name="rec_basis" >
     <v>       0.10000000       0.00000000       0.00000000 </v>
     <v>       0.00000000       0.10000000       0.00000000 </v>
     <v>       0.00000000       0.00000000       0.10000000 </v>
    </varray>
   </crystal>
   <varray name="positions" >
    <v>       0.56291180       0.56291180       0.56291180 </v>
    <v>       0.43708820       0.43708820       0.56291180 </v>
    <v>       0.56291180       0.43708820       0.43708820 </v>
    <v>       0.43708820       0.56291180       0.43708820 </v>
    <v>       0.50000000       0.50000000       0.50000000 </v>
   </varray>
  </structure>
  <varray name="forces" >
   <v>       0.17892830       0.17892830       0.17892830 </v>
   <v>      -0.17892830      -0.17892830       0.17892830 </v>
   <v>       0.17892830      -0.17892830      -0.17892830 </v>
   <v>      -0.17892830       0.17892830      -0.17892830 </v>
   <v>       0.00000000       0.00000000       0.00000000 </v>
  </varray>
  <varray name="stress" >
   <v>      -0.84308229       0.00000000       0.00000000 </v>
   <v>       0.00000000      -0.84308229       0.00000000 </v>
   <v>       0.00000000       0.00000000      -0.84308229 </v>
  </varray>
  <energy>
   <i name="e_fr_energy">    -23.98025278 </i>
   <i name="e_wo_entrp">    -23.98025278 </i>
   <i name="e_0_energy">      0.00000000 </i>
  </energy>
  <time name="totalsc">   88.56   90.02</time>
 </calculation>
 <calculation>
  <scstep>
   <time name="dav">    1.55    1.55</time>
   <time name="total">    5.54    5.55</time>
   <energy>
    <i name="alphaZ">      0.24091877 </i>
    <i name="ewald">    126.89610233 </i>
    <i name="hartreedc">   -283.80799392 </i>
    <i name="XCdc">     25.32322160 </i>
    <i name="pawpsdc">     91.10642274 </i>
    <i name="pawaedc">    -92.48721101 </i>
    <i name="eentropy">      0.00000000 </i>
    <i name="bandstr">    -88.20872164 </i>
    <i name="atom">    196.94315586 </i>
    <i name="e_fr_energy">    -23.99410527 </i>
    <i name="e_wo_entrp">    -23.99410527 </i>
    <i name="e_0_energy">    -23.99410527 </i>
   </energy>
  </scstep>
  <scstep>
   <time name="dav">    2.35    2.35</time>
   <time name="total">    6.44    6.47</time>
   <energy>
    <i name="e_fr_energy">    -23.99045392 </i>
    <i name="e_wo_entrp">    -23.99045392 </i>
    <i name="e_0_energy">    -23.99045392 </i>
   </energy>
  </scstep>
  <scstep>
   <time name="dav">    2.04    2.04</time>
   <time name="total">    6.36    6.59</time>
   <energy>
    <i name="e_fr_energy">    -23.99055377 </i>
    <i name="e_wo_entrp">    -23.99055377 </i>
    <i name="e_0_energy">    -23.99055377 </i>
   </energy>
  </scstep>
  <scstep>
   <time name="dav">    2.07    2.07</time>
   <time name="total">    5.85    5.86</time>
   <energy>
    <i name="alphaZ">      0.24091877 </i>
    <i name="ewald">    126.89610233 </i>
    <i name="hartreedc">   -282.73467507 </i>
    <i name="XCdc">     25.26056686 </i>
    <i name="pawpsdc">     88.28251495 </i>
    <i name="pawaedc">    -89.64912028 </i>
    <i name="eentropy">      0.00000000 </i>
    <i name="bandstr">    -89.23002055 </i>
    <i name="atom">    196.94315586 </i>
    <i name="e_fr_energy">    -23.99055713 </i>
    <i name="e_wo_entrp">    -23.99055713 </i>
    <i name="e_0_energy">    -23.99055713 </i>
   </energy>
  </scstep>
  <structure>
   <crystal>
    <varray name="basis" >
     <v>      10.00000000       0.00000000       0.00000000 </v>
     <v>       0.00000000      10.00000000       0.00000000 </v>
     <v>       0.00000000       0.00000000      10.00000000 </v>
    </varray>
    <i name="volume">   1000.00000000 </i>
    <varray name="rec_basis" >
     <v>       0.10000000       0.00000000       0.00000000 </v>
     <v>       0.00000000       0.10000000       0.00000000 </v>
     <v>       0.00000000       0.00000000       0.10000000 </v>
    </varray>
   </crystal>
   <varray name="positions" >
    <v>       0.56377500       0.56377500       0.56377500 </v>
    <v>       0.43622500       0.43622500       0.56377500 </v>
    <v>       0.56377500       0.43622500       0.43622500 </v>
    <v>       0.43622500       0.56377500       0.43622500 </v>
    <v>       0.50000000       0.50000000       0.50000000 </v>
   </varray>
  </structure>
  <varray name="forces" >
   <v>      -0.10894161      -0.10894161      -0.10894161 </v>
   <v>       0.10894161       0.10894161      -0.10894161 </v>
   <v>      -0.10894161       0.10894161       0.10894161 </v>
   <v>       0.10894161      -0.10894161       0.10894161 </v>
   <v>       0.00000000       0.00000000       0.00000000 </v>
  </varray>
  <varray name="stress" >
   <v>      -1.86838520       0.00000000       0.00000000 </v>
   <v>       0.00000000      -1.86838520       0.00000000 </v>
   <v>       0.00000000       0.00000000      -1.86838520 </v>
  </varray>
  <energy>
   <i name="e_fr_energy">    -23.99055713 </i>
   <i name="e_wo_entrp">    -23.99055713 </i>
   <i name="e_0_energy">      0.00000000 </i>
  </energy>
  <time name="totalsc">   30.63   30.97</time>
 </calculation>
 <calculation>
  <scstep>
   <time name="dav">    1.52    1.52</time>
   <time name="total">    5.44    5.44</time>
   <energy>
    <i name="alphaZ">      0.24091877 </i>
    <i name="ewald">    127.51699776 </i>
    <i name="hartreedc">   -283.10582531 </i>
    <i name="XCdc">     25.27816220 </i>
    <i name="pawpsdc">     88.19525563 </i>
    <i name="pawaedc">    -89.56238817 </i>
    <i name="eentropy">      0.00000000 </i>
    <i name="bandstr">    -89.49858264 </i>
    <i name="atom">    196.94315586 </i>
    <i name="e_fr_energy">    -23.99230590 </i>
    <i name="e_wo_entrp">    -23.99230590 </i>
    <i name="e_0_energy">    -23.99230590 </i>
   </energy>
  </scstep>
  <scstep>
   <time name="dav">    1.47    1.47</time>
   <time name="total">    5.35    5.35</time>
   <energy>
    <i name="e_fr_energy">    -23.99219950 </i>
    <i name="e_wo_entrp">    -23.99219950 </i>
    <i name="e_0_energy">    -23.99219950 </i>
   </energy>
  </scstep>
  <scstep>
   <time name="dav">    1.60    1.60</time>
   <time name="total">    5.64    5.71</time>
   <energy>
    <i name="e_fr_energy">    -23.99231288 </i>
    <i name="e_wo_entrp">    -23.99231288 </i>
    <i name="e_0_energy">    -23.99231288 </i>
   </energy>
  </scstep>
  <scstep>
   <time name="dav">    1.55    1.55</time>
   <time name="total">    5.04    5.05</time>
   <energy>
    <i name="alphaZ">      0.24091877 </i>
    <i name="ewald">    127.51699776 </i>
    <i name="hartreedc">   -283.31680116 </i>
    <i name="XCdc">     25.28884792 </i>
    <i name="pawpsdc">     88.57604706 </i>
    <i name="pawaedc">    -89.94610866 </i>
    <i name="eentropy">      0.00000000 </i>
    <i name="bandstr">    -89.29540147 </i>
    <i name="atom">    196.94315586 </i>
    <i name="e_fr_energy">    -23.99234391 </i>
    <i name="e_wo_entrp">    -23.99234391 </i>
    <i name="e_0_energy">    -23.99234391 </i>
   </energy>
  </scstep>
  <structure>
   <crystal>
    <varray name="basis" >
     <v>      10.00000000       0.00000000       0.00000000 </v>
     <v>       0.00000000      10.00000000       0.00000000 </v>
     <v>       0.00000000       0.00000000      10.00000000 </v>
    </varray>
    <i name="volume">   1000.00000000 </i>
    <varray name="rec_basis" >
     <v>       0.10000000       0.00000000       0.00000000 </v>
     <v>       0.00000000       0.10000000       0.00000000 </v>
     <v>       0.00000000       0.00000000       0.10000000 </v>
    </varray>
   </crystal>
   <varray name="positions" >
    <v>       0.56361959       0.56361959       0.56361959 </v>
    <v>       0.43638041       0.43638041       0.56361959 </v>
    <v>       0.56361959       0.43638041       0.43638041 </v>
    <v>       0.43638041       0.56361959       0.43638041 </v>
    <v>       0.50000000       0.50000000       0.50000000 </v>
   </varray>
  </structure>
  <varray name="forces" >
   <v>      -0.04962574      -0.04962574      -0.04962574 </v>
   <v>       0.04962574       0.04962574      -0.04962574 </v>
   <v>      -0.04962574       0.04962574       0.04962574 </v>
   <v>       0.04962574      -0.04962574       0.04962574 </v>
   <v>       0.00000000       0.00000000       0.00000000 </v>
  </varray>
  <varray name="stress" >
   <v>      -1.76442465       0.00000000       0.00000000 </v>
   <v>       0.00000000      -1.76442465       0.00000000 </v>
   <v>       0.00000000       0.00000000      -1.76442465 </v>
  </varray>
  <energy>
   <i name="e_fr_energy">    -23.99234391 </i>
   <i name="e_wo_entrp">    -23.99234391 </i>
   <i name="e_0_energy">      0.00000000 </i>
  </energy>
  <time name="totalsc">   27.13   27.48</time>
  <eigenvalues>
   <array>
    <dimension dim="1">band</dimension>
    <dimension dim="2">kpoint</dimension>
    <dimension dim="3">spin</dimension>
    <field>eigene</field>
    <field>occ</field>
    <set>
     <set comment="spin 1">
      <set comment="kpoint 1">
       <r>  -16.8577    1.0000 </r>
       <r>   -9.2633    1.0000 </r>
       <r>   -9.2633    1.0000 </r>
       <r>   -9.2633    1.0000 </r>
       <r>   -0.5179    0.0000 </r>
       <r>    0.8132    0.0000 </r>
       <r>    1.0638    0.0000 </r>
       <r>    1.0638    0.0000 </r>
       <r>    1.0638    0.0000 </r>
       <r>    1.2812    0.0000 </r>
      </set>
     </set>
     <set comment="spin 2">
      <set comment="kpoint 1">
       <r>  -16.8577    1.0000 </r>
       <r>   -9.2633    1.0000 </r>
       <r>   -9.2633    1.0000 </r>
       <r>   -9.2633    1.0000 </r>
       <r>   -0.5145    0.0000 </r>
       <r>    0.8153    0.0000 </r>
       <r>    1.0683    0.0000 </r>
       <r>    1.0683    0.0000 </r>
       <r>    1.0683    0.0000 </r>
       <r>    1.2859    0.0000 </r>
      </set>
     </set>
    </set>
   </array>
  </eigenvalues>
  <separator name="orbital magnetization" >
   <v name="MAGDIPOLOUT">      0.00000000      0.00000000      0.00000000</v>
  </separator>
  <dos>
   <i name="efermi">     -8.30245626 </i>
   <total>
    <array>
     <dimension dim="1">gridpoints</dimension>
     <dimension dim="2">spin</dimension>
     <field>energy</field>
     <field>total</field>
     <field>integrated</field>
     <set>
      <set comment="spin 1">
       <r>   -18.8577     0.0000     0.0000 </r>
       <r>   -18.7839     0.0000     0.0000 </r>
       <r>   -18.7101     0.0000     0.0000 </r>
       <r>   -18.6363     0.0000     0.0000 </r>
       <r>   -18.5625     0.0000     0.0000 </r>
       <r>   -18.4887     0.0000     0.0000 </r>
       <r>   -18.4148     0.0000     0.0000 </r>
       <r>   -18.3410     0.0000     0.0000 </r>
       <r>   -18.2672     0.0000     0.0000 </r>
       <r>   -18.1934     0.0000     0.0000 </r>
       <r>   -18.1196     0.0000     0.0000 </r>
       <r>   -18.0458     0.0000     0.0000 </r>
       <r>   -17.9720     0.0000     0.0000 </r>
       <r>   -17.8982     0.0000     0.0000 </r>
       <r>   -17.8244     0.0000     0.0000 </r>
       <r>   -17.7505     0.0000     0.0000 </r>
       <r>   -17.6767     0.0000     0.0000 </r>
       <r>   -17.6029     0.0000     0.0000 </r>
       <r>   -17.5291     0.0000     0.0000 </r>
       <r>   -17.4553     0.0001     0.0000 </r>
       <r>   -17.3815     0.0013     0.0001 </r>
       <r>   -17.3077     0.0085     0.0007 </r>
       <r>   -17.2339     0.0431     0.0039 </r>
       <r>   -17.1600     0.1674     0.0163 </r>
       <r>   -17.0862     0.4985     0.0531 </r>
       <r>   -17.0124     1.1371     0.1370 </r>
       <r>   -16.9386     1.9871     0.2837 </r>
       <r>   -16.8648     2.6605     0.4800 </r>
       <r>   -16.7910     2.7293     0.6815 </r>
       <r>   -16.7172     2.1453     0.8398 </r>
       <r>   -16.6434     1.2920     0.9352 </r>
       <r>   -16.5695     0.5961     0.9792 </r>
       <r>   -16.4957     0.2107     0.9948 </r>
       <r>   -16.4219     0.0570     0.9990 </r>
       <r>   -16.3481     0.0118     0.9998 </r>
       <r>   -16.2743     0.0019     1.0000 </r>
       <r>   -16.2005     0.0002     1.0000 </r>
       <r>   -16.1267     0.0000     1.0000 </r>
       <r>   -16.0529     0.0000     1.0000 </r>
       <r>   -15.9791     0.0000     1.0000 </r>
       <r>   -15.9052     0.0000     1.0000 </r>
       <r>   -15.8314     0.0000     1.0000 </r>
       <r>   -15.7576     0.0000     1.0000 </r>
       <r>   -15.6838     0.0000     1.0000 </r>
       <r>   -15.6100     0.0000     1.0000 </r>
       <r>   -15.5362     0.0000     1.0000 </r>
       <r>   -15.4624     0.0000     1.0000 </r>
       <r>   -15.3886     0.0000     1.0000 </r>
       <r>   -15.3147     0.0000     1.0000 </r>
       <r>   -15.2409     0.0000     1.0000 </r>
       <r>   -15.1671     0.0000     1.0000 </r>
       <r>   -15.0933     0.0000     1.0000 </r>
       <r>   -15.0195     0.0000     1.0000 </r>
       <r>   -14.9457     0.0000     1.0000 </r>
       <r>   -14.8719     0.0000     1.0000 </r>
       <r>   -14.7981     0.0000     1.0000 </r>
       <r>   -14.7242     0.0000     1.0000 </r>
       <r>   -14.6504     0.0000     1.0000 </r>
       <r>   -14.5766     0.0000     1.0000 </r>
       <r>   -14.5028     0.0000     1.0000 </r>
       <r>   -14.4290     0.0000     1.0000 </r>
       <r>   -14.3552     0.0000     1.0000 </r>
       <r>   -14.2814     0.0000     1.0000 </r>
       <r>   -14.2076     0.0000     1.0000 </r>
       <r>   -14.1338     0.0000     1.0000 </r>
       <r>   -14.0599     0.0000     1.0000 </r>
       <r>   -13.9861     0.0000     1.0000 </r>
       <r>   -13.9123     0.0000     1.0000 </r>
       <r>   -13.8385     0.0000     1.0000 </r>
       <r>   -13.7647     0.0000     1.0000 </r>
       <r>   -13.6909     0.0000     1.0000 </r>
       <r>   -13.6171     0.0000     1.0000 </r>
       <r>   -13.5433     0.0000     1.0000 </r>
       <r>   -13.4694     0.0000     1.0000 </r>
       <r>   -13.3956     0.0000     1.0000 </r>
       <r>   -13.3218     0.0000     1.0000 </r>
       <r>   -13.2480     0.0000     1.0000 </r>
       <r>   -13.1742     0.0000     1.0000 </r>
       <r>   -13.1004     0.0000     1.0000 </r>
       <r>   -13.0266     0.0000     1.0000 </r>
       <r>   -12.9528     0.0000     1.0000 </r>
       <r>   -12.8789     0.0000     1.0000 </r>
       <r>   -12.8051     0.0000     1.0000 </r>
       <r>   -12.7313     0.0000     1.0000 </r>
       <r>   -12.6575     0.0000     1.0000 </r>
       <r>   -12.5837     0.0000     1.0000 </r>
       <r>   -12.5099     0.0000     1.0000 </r>
       <r>   -12.4361     0.0000     1.0000 </r>
       <r>   -12.3623     0.0000     1.0000 </r>
       <r>   -12.2885     0.0000     1.0000 </r>
       <r>   -12.2146     0.0000     1.0000 </r>
       <r>   -12.1408     0.0000     1.0000 </r>
       <r>   -12.0670     0.0000     1.0000 </r>
       <r>   -11.9932     0.0000     1.0000 </r>
       <r>   -11.9194     0.0000     1.0000 </r>
       <r>   -11.8456     0.0000     1.0000 </r>
       <r>   -11.7718     0.0000     1.0000 </r>
       <r>   -11.6980     0.0000     1.0000 </r>
       <r>   -11.6241     0.0000     1.0000 </r>
       <r>   -11.5503     0.0000     1.0000 </r>
       <r>   -11.4765     0.0000     1.0000 </r>
       <r>   -11.4027     0.0000     1.0000 </r>
       <r>   -11.3289     0.0000     1.0000 </r>
       <r>   -11.2551     0.0000     1.0000 </r>
       <r>   -11.1813     0.0000     1.0000 </r>
       <r>   -11.1075     0.0000     1.0000 </r>
       <r>   -11.0336     0.0000     1.0000 </r>
       <r>   -10.9598     0.0000     1.0000 </r>
       <r>   -10.8860     0.0000     1.0000 </r>
       <r>   -10.8122     0.0000     1.0000 </r>
       <r>   -10.7384     0.0000     1.0000 </r>
       <r>   -10.6646     0.0000     1.0000 </r>
       <r>   -10.5908     0.0000     1.0000 </r>
       <r>   -10.5170     0.0000     1.0000 </r>
       <r>   -10.4431     0.0000     1.0000 </r>
       <r>   -10.3693     0.0000     1.0000 </r>
       <r>   -10.2955     0.0000     1.0000 </r>
       <r>   -10.2217     0.0000     1.0000 </r>
       <r>   -10.1479     0.0000     1.0000 </r>
       <r>   -10.0741     0.0000     1.0000 </r>
       <r>   -10.0003     0.0000     1.0000 </r>
       <r>    -9.9265     0.0001     1.0000 </r>
       <r>    -9.8527     0.0006     1.0000 </r>
       <r>    -9.7788     0.0048     1.0004 </r>
       <r>    -9.7050     0.0309     1.0027 </r>
       <r>    -9.6312     0.1524     1.0139 </r>
       <r>    -9.5574     0.5750     1.0564 </r>
       <r>    -9.4836     1.6620     1.1791 </r>
       <r>    -9.4098     3.6796     1.4507 </r>
       <r>    -9.3360     6.2412     1.9113 </r>
       <r>    -9.2622     8.1108     2.5100 </r>
       <r>    -9.1883     8.0763     3.1061 </r>
       <r>    -9.1145     6.1618     3.5610 </r>
       <r>    -9.0407     3.6020     3.8268 </r>
       <r>    -8.9669     1.6131     3.9459 </r>
       <r>    -8.8931     0.5534     3.9867 </r>
       <r>    -8.8193     0.1454     3.9975 </r>
       <r>    -8.7455     0.0293     3.9996 </r>
       <r>    -8.6717     0.0045     4.0000 </r>
       <r>    -8.5978     0.0005     4.0000 </r>
       <r>    -8.5240     0.0000     4.0000 </r>
       <r>    -8.4502     0.0000     4.0000 </r>
       <r>    -8.3764     0.0000     4.0000 </r>
       <r>    -8.3026     0.0000     4.0000 </r>
       <r>    -8.2288     0.0000     4.0000 </r>
       <r>    -8.1550     0.0000     4.0000 </r>
       <r>    -8.0812     0.0000     4.0000 </r>
       <r>    -8.0074     0.0000     4.0000 </r>
       <r>    -7.9335     0.0000     4.0000 </r>
       <r>    -7.8597     0.0000     4.0000 </r>
       <r>    -7.7859     0.0000     4.0000 </r>
       <r>    -7.7121     0.0000     4.0000 </r>
       <r>    -7.6383     0.0000     4.0000 </r>
       <r>    -7.5645     0.0000     4.0000 </r>
       <r>    -7.4907     0.0000     4.0000 </r>
       <r>    -7.4169     0.0000     4.0000 </r>
       <r>    -7.3430     0.0000     4.0000 </r>
       <r>    -7.2692     0.0000     4.0000 </r>
       <r>    -7.1954     0.0000     4.0000 </r>
       <r>    -7.1216     0.0000     4.0000 </r>
       <r>    -7.0478     0.0000     4.0000 </r>
       <r>    -6.9740     0.0000     4.0000 </r>
       <r>    -6.9002     0.0000     4.0000 </r>
       <r>    -6.8264     0.0000     4.0000 </r>
       <r>    -6.7525     0.0000     4.0000 </r>
       <r>    -6.6787     0.0000     4.0000 </r>
       <r>    -6.6049     0.0000     4.0000 </r>
       <r>    -6.5311     0.0000     4.0000 </r>
       <r>    -6.4573     0.0000     4.0000 </r>
       <r>    -6.3835     0.0000     4.0000 </r>
       <r>    -6.3097     0.0000     4.0000 </r>
       <r>    -6.2359     0.0000     4.0000 </r>
       <r>    -6.1621     0.0000     4.0000 </r>
       <r>    -6.0882     0.0000     4.0000 </r>
       <r>    -6.0144     0.0000     4.0000 </r>
       <r>    -5.9406     0.0000     4.0000 </r>
       <r>    -5.8668     0.0000     4.0000 </r>
       <r>    -5.7930     0.0000     4.0000 </r>
       <r>    -5.7192     0.0000     4.0000 </r>
       <r>    -5.6454     0.0000     4.0000 </r>
       <r>    -5.5716     0.0000     4.0000 </r>
       <r>    -5.4977     0.0000     4.0000 </r>
       <r>    -5.4239     0.0000     4.0000 </r>
       <r>    -5.3501     0.0000     4.0000 </r>
       <r>    -5.2763     0.0000     4.0000 </r>
       <r>    -5.2025     0.0000     4.0000 </r>
       <r>    -5.1287     0.0000     4.0000 </r>
       <r>    -5.0549     0.0000     4.0000 </r>
       <r>    -4.9811     0.0000     4.0000 </r>
       <r>    -4.9072     0.0000     4.0000 </r>
       <r>    -4.8334     0.0000     4.0000 </r>
       <r>    -4.7596     0.0000     4.0000 </r>
       <r>    -4.6858     0.0000     4.0000 </r>
       <r>    -4.6120     0.0000     4.0000 </r>
       <r>    -4.5382     0.0000     4.0000 </r>
       <r>    -4.4644     0.0000     4.0000 </r>
       <r>    -4.3906     0.0000     4.0000 </r>
       <r>    -4.3168     0.0000     4.0000 </r>
       <r>    -4.2429     0.0000     4.0000 </r>
       <r>    -4.1691     0.0000     4.0000 </r>
       <r>    -4.0953     0.0000     4.0000 </r>
       <r>    -4.0215     0.0000     4.0000 </r>
       <r>    -3.9477     0.0000     4.0000 </r>
       <r>    -3.8739     0.0000     4.0000 </r>
       <r>    -3.8001     0.0000     4.0000 </r>
       <r>    -3.7263     0.0000     4.0000 </r>
       <r>    -3.6524     0.0000     4.0000 </r>
       <r>    -3.5786     0.0000     4.0000 </r>
       <r>    -3.5048     0.0000     4.0000 </r>
       <r>    -3.4310     0.0000     4.0000 </r>
       <r>    -3.3572     0.0000     4.0000 </r>
       <r>    -3.2834     0.0000     4.0000 </r>
       <r>    -3.2096     0.0000     4.0000 </r>
       <r>    -3.1358     0.0000     4.0000 </r>
       <r>    -3.0619     0.0000     4.0000 </r>
       <r>    -2.9881     0.0000     4.0000 </r>
       <r>    -2.9143     0.0000     4.0000 </r>
       <r>    -2.8405     0.0000     4.0000 </r>
       <r>    -2.7667     0.0000     4.0000 </r>
       <r>    -2.6929     0.0000     4.0000 </r>
       <r>    -2.6191     0.0000     4.0000 </r>
       <r>    -2.5453     0.0000     4.0000 </r>
       <r>    -2.4714     0.0000     4.0000 </r>
       <r>    -2.3976     0.0000     4.0000 </r>
       <r>    -2.3238     0.0000     4.0000 </r>
       <r>    -2.2500     0.0000     4.0000 </r>
       <r>    -2.1762     0.0000     4.0000 </r>
       <r>    -2.1024     0.0000     4.0000 </r>
       <r>    -2.0286     0.0000     4.0000 </r>
       <r>    -1.9548     0.0000     4.0000 </r>
       <r>    -1.8810     0.0000     4.0000 </r>
       <r>    -1.8071     0.0000     4.0000 </r>
       <r>    -1.7333     0.0000     4.0000 </r>
       <r>    -1.6595     0.0000     4.0000 </r>
       <r>    -1.5857     0.0000     4.0000 </r>
       <r>    -1.5119     0.0000     4.0000 </r>
       <r>    -1.4381     0.0000     4.0000 </r>
       <r>    -1.3643     0.0000     4.0000 </r>
       <r>    -1.2905     0.0000     4.0000 </r>
       <r>    -1.2166     0.0000     4.0000 </r>
       <r>    -1.1428     0.0001     4.0000 </r>
       <r>    -1.0690     0.0006     4.0000 </r>
       <r>    -0.9952     0.0043     4.0004 </r>
       <r>    -0.9214     0.0243     4.0022 </r>
       <r>    -0.8476     0.1045     4.0099 </r>
       <r>    -0.7738     0.3433     4.0352 </r>
       <r>    -0.7000     0.8644     4.0990 </r>
       <r>    -0.6261     1.6670     4.2221 </r>
       <r>    -0.5523     2.4633     4.4039 </r>
       <r>    -0.4785     2.7888     4.6097 </r>
       <r>    -0.4047     2.4193     4.7883 </r>
       <r>    -0.3309     1.6080     4.9070 </r>
       <r>    -0.2571     0.8189     4.9674 </r>
       <r>    -0.1833     0.3194     4.9910 </r>
       <r>    -0.1095     0.0955     4.9981 </r>
       <r>    -0.0357     0.0218     4.9997 </r>
       <r>     0.0382     0.0038     5.0000 </r>
       <r>     0.1120     0.0005     5.0000 </r>
       <r>     0.1858     0.0001     5.0000 </r>
       <r>     0.2596     0.0006     5.0000 </r>
       <r>     0.3334     0.0041     5.0003 </r>
       <r>     0.4072     0.0231     5.0021 </r>
       <r>     0.4810     0.1006     5.0095 </r>
       <r>     0.5548     0.3370     5.0344 </r>
       <r>     0.6287     0.8775     5.0991 </r>
       <r>     0.7025     1.8111     5.2328 </r>
       <r>     0.7763     3.0821     5.4603 </r>
       <r>     0.8501     4.6045     5.8002 </r>
       <r>     0.9239     6.4009     6.2726 </r>
       <r>     0.9977     8.3205     6.8868 </r>
       <r>     1.0715     9.6678     7.6004 </r>
       <r>     1.1453     9.6470     8.3124 </r>
       <r>     1.2192     8.2357     8.9203 </r>
       <r>     1.2930     6.1611     9.3751 </r>
       <r>     1.3668     4.1198     9.6792 </r>
       <r>     1.4406     2.4305     9.8586 </r>
       <r>     1.5144     1.2150     9.9483 </r>
       <r>     1.5882     0.4938     9.9847 </r>
       <r>     1.6620     0.1585     9.9964 </r>
       <r>     1.7358     0.0396     9.9993 </r>
       <r>     1.8096     0.0076     9.9999 </r>
       <r>     1.8835     0.0011    10.0000 </r>
       <r>     1.9573     0.0001    10.0000 </r>
       <r>     2.0311     0.0000    10.0000 </r>
       <r>     2.1049     0.0000    10.0000 </r>
       <r>     2.1787     0.0000    10.0000 </r>
       <r>     2.2525     0.0000    10.0000 </r>
       <r>     2.3263     0.0000    10.0000 </r>
       <r>     2.4001     0.0000    10.0000 </r>
       <r>     2.4740     0.0000    10.0000 </r>
       <r>     2.5478     0.0000    10.0000 </r>
       <r>     2.6216     0.0000    10.0000 </r>
       <r>     2.6954     0.0000    10.0000 </r>
       <r>     2.7692     0.0000    10.0000 </r>
       <r>     2.8430     0.0000    10.0000 </r>
       <r>     2.9168     0.0000    10.0000 </r>
       <r>     2.9906     0.0000    10.0000 </r>
       <r>     3.0645     0.0000    10.0000 </r>
       <r>     3.1383     0.0000    10.0000 </r>
       <r>     3.2121     0.0000    10.0000 </r>
       <r>     3.2859     0.0000    10.0000 </r>
      </set>
      <set comment="spin 2">
       <r>   -18.8577     0.0000     0.0000 </r>
       <r>   -18.7839     0.0000     0.0000 </r>
       <r>   -18.7101     0.0000     0.0000 </r>
       <r>   -18.6363     0.0000     0.0000 </r>
       <r>   -18.5625     0.0000     0.0000 </r>
       <r>   -18.4887     0.0000     0.0000 </r>
       <r>   -18.4148     0.0000     0.0000 </r>
       <r>   -18.3410     0.0000     0.0000 </r>
       <r>   -18.2672     0.0000     0.0000 </r>
       <r>   -18.1934     0.0000     0.0000 </r>
       <r>   -18.1196     0.0000     0.0000 </r>
       <r>   -18.0458     0.0000     0.0000 </r>
       <r>   -17.9720     0.0000     0.0000 </r>
       <r>   -17.8982     0.0000     0.0000 </r>
       <r>   -17.8244     0.0000     0.0000 </r>
       <r>   -17.7505     0.0000     0.0000 </r>
       <r>   -17.6767     0.0000     0.0000 </r>
       <r>   -17.6029     0.0000     0.0000 </r>
       <r>   -17.5291     0.0000     0.0000 </r>
       <r>   -17.4553     0.0001     0.0000 </r>
       <r>   -17.3815     0.0013     0.0001 </r>
       <r>   -17.3077     0.0085     0.0007 </r>
       <r>   -17.2339     0.0430     0.0039 </r>
       <r>   -17.1600     0.1673     0.0163 </r>
       <r>   -17.0862     0.4983     0.0530 </r>
       <r>   -17.0124     1.1367     0.1369 </r>
       <r>   -16.9386     1.9866     0.2836 </r>
       <r>   -16.8648     2.6602     0.4799 </r>
       <r>   -16.7910     2.7294     0.6814 </r>
       <r>   -16.7172     2.1457     0.8398 </r>
       <r>   -16.6434     1.2924     0.9352 </r>
       <r>   -16.5695     0.5964     0.9792 </r>
       <r>   -16.4957     0.2108     0.9948 </r>
       <r>   -16.4219     0.0571     0.9990 </r>
       <r>   -16.3481     0.0118     0.9998 </r>
       <r>   -16.2743     0.0019     1.0000 </r>
       <r>   -16.2005     0.0002     1.0000 </r>
       <r>   -16.1267     0.0000     1.0000 </r>
       <r>   -16.0529     0.0000     1.0000 </r>
       <r>   -15.9791     0.0000     1.0000 </r>
       <r>   -15.9052     0.0000     1.0000 </r>
       <r>   -15.8314     0.0000     1.0000 </r>
       <r>   -15.7576     0.0000     1.0000 </r>
       <r>   -15.6838     0.0000     1.0000 </r>
       <r>   -15.6100     0.0000     1.0000 </r>
       <r>   -15.5362     0.0000     1.0000 </r>
       <r>   -15.4624     0.0000     1.0000 </r>
       <r>   -15.3886     0.0000     1.0000 </r>
       <r>   -15.3147     0.0000     1.0000 </r>
       <r>   -15.2409     0.0000     1.0000 </r>
       <r>   -15.1671     0.0000     1.0000 </r>
       <r>   -15.0933     0.0000     1.0000 </r>
       <r>   -15.0195     0.0000     1.0000 </r>
       <r>   -14.9457     0.0000     1.0000 </r>
       <r>   -14.8719     0.0000     1.0000 </r>
       <r>   -14.7981     0.0000     1.0000 </r>
       <r>   -14.7242     0.0000     1.0000 </r>
       <r>   -14.6504     0.0000     1.0000 </r>
       <r>   -14.5766     0.0000     1.0000 </r>
       <r>   -14.5028     0.0000     1.0000 </r>
       <r>   -14.4290     0.0000     1.0000 </r>
       <r>   -14.3552     0.0000     1.0000 </r>
       <r>   -14.2814     0.0000     1.0000 </r>
       <r>   -14.2076     0.0000     1.0000 </r>
       <r>   -14.1338     0.0000     1.0000 </r>
       <r>   -14.0599     0.0000     1.0000 </r>
       <r>   -13.9861     0.0000     1.0000 </r>
       <r>   -13.9123     0.0000     1.0000 </r>
       <r>   -13.8385     0.0000     1.0000 </r>
       <r>   -13.7647     0.0000     1.0000 </r>
       <r>   -13.6909     0.0000     1.0000 </r>
       <r>   -13.6171     0.0000     1.0000 </r>
       <r>   -13.5433     0.0000     1.0000 </r>
       <r>   -13.4694     0.0000     1.0000 </r>
       <r>   -13.3956     0.0000     1.0000 </r>
       <r>   -13.3218     0.0000     1.0000 </r>
       <r>   -13.2480     0.0000     1.0000 </r>
       <r>   -13.1742     0.0000     1.0000 </r>
       <r>   -13.1004     0.0000     1.0000 </r>
       <r>   -13.0266     0.0000     1.0000 </r>
       <r>   -12.9528     0.0000     1.0000 </r>
       <r>   -12.8789     0.0000     1.0000 </r>
       <r>   -12.8051     0.0000     1.0000 </r>
       <r>   -12.7313     0.0000     1.0000 </r>
       <r>   -12.6575     0.0000     1.0000 </r>
       <r>   -12.5837     0.0000     1.0000 </r>
       <r>   -12.5099     0.0000     1.0000 </r>
       <r>   -12.4361     0.0000     1.0000 </r>
       <r>   -12.3623     0.0000     1.0000 </r>
       <r>   -12.2885     0.0000     1.0000 </r>
       <r>   -12.2146     0.0000     1.0000 </r>
       <r>   -12.1408     0.0000     1.0000 </r>
       <r>   -12.0670     0.0000     1.0000 </r>
       <r>   -11.9932     0.0000     1.0000 </r>
       <r>   -11.9194     0.0000     1.0000 </r>
       <r>   -11.8456     0.0000     1.0000 </r>
       <r>   -11.7718     0.0000     1.0000 </r>
       <r>   -11.6980     0.0000     1.0000 </r>
       <r>   -11.6241     0.0000     1.0000 </r>
       <r>   -11.5503     0.0000     1.0000 </r>
       <r>   -11.4765     0.0000     1.0000 </r>
       <r>   -11.4027     0.0000     1.0000 </r>
       <r>   -11.3289     0.0000     1.0000 </r>
       <r>   -11.2551     0.0000     1.0000 </r>
       <r>   -11.1813     0.0000     1.0000 </r>
       <r>   -11.1075     0.0000     1.0000 </r>
       <r>   -11.0336     0.0000     1.0000 </r>
       <r>   -10.9598     0.0000     1.0000 </r>
       <r>   -10.8860     0.0000     1.0000 </r>
       <r>   -10.8122     0.0000     1.0000 </r>
       <r>   -10.7384     0.0000     1.0000 </r>
       <r>   -10.6646     0.0000     1.0000 </r>
       <r>   -10.5908     0.0000     1.0000 </r>
       <r>   -10.5170     0.0000     1.0000 </r>
       <r>   -10.4431     0.0000     1.0000 </r>
       <r>   -10.3693     0.0000     1.0000 </r>
       <r>   -10.2955     0.0000     1.0000 </r>
       <r>   -10.2217     0.0000     1.0000 </r>
       <r>   -10.1479     0.0000     1.0000 </r>
       <r>   -10.0741     0.0000     1.0000 </r>
       <r>   -10.0003     0.0000     1.0000 </r>
       <r>    -9.9265     0.0001     1.0000 </r>
       <r>    -9.8527     0.0006     1.0000 </r>
       <r>    -9.7788     0.0048     1.0004 </r>
       <r>    -9.7050     0.0309     1.0027 </r>
       <r>    -9.6312     0.1524     1.0139 </r>
       <r>    -9.5574     0.5749     1.0564 </r>
       <r>    -9.4836     1.6618     1.1790 </r>
       <r>    -9.4098     3.6793     1.4506 </r>
       <r>    -9.3360     6.2408     1.9112 </r>
       <r>    -9.2622     8.1107     2.5099 </r>
       <r>    -9.1883     8.0765     3.1061 </r>
       <r>    -9.1145     6.1622     3.5609 </r>
       <r>    -9.0407     3.6023     3.8268 </r>
       <r>    -8.9669     1.6133     3.9459 </r>
       <r>    -8.8931     0.5535     3.9867 </r>
       <r>    -8.8193     0.1454     3.9975 </r>
       <r>    -8.7455     0.0293     3.9996 </r>
       <r>    -8.6717     0.0045     4.0000 </r>
       <r>    -8.5978     0.0005     4.0000 </r>
       <r>    -8.5240     0.0000     4.0000 </r>
       <r>    -8.4502     0.0000     4.0000 </r>
       <r>    -8.3764     0.0000     4.0000 </r>
       <r>    -8.3026     0.0000     4.0000 </r>
       <r>    -8.2288     0.0000     4.0000 </r>
       <r>    -8.1550     0.0000     4.0000 </r>
       <r>    -8.0812     0.0000     4.0000 </r>
       <r>    -8.0074     0.0000     4.0000 </r>
       <r>    -7.9335     0.0000     4.0000 </r>
       <r>    -7.8597     0.0000     4.0000 </r>
       <r>    -7.7859     0.0000     4.0000 </r>
       <r>    -7.7121     0.0000     4.0000 </r>
       <r>    -7.6383     0.0000     4.0000 </r>
       <r>    -7.5645     0.0000     4.0000 </r>
       <r>    -7.4907     0.0000     4.0000 </r>
       <r>    -7.4169     0.0000     4.0000 </r>
       <r>    -7.3430     0.0000     4.0000 </r>
       <r>    -7.2692     0.0000     4.0000 </r>
       <r>    -7.1954     0.0000     4.0000 </r>
       <r>    -7.1216     0.0000     4.0000 </r>
       <r>    -7.0478     0.0000     4.0000 </r>
       <r>    -6.9740     0.0000     4.0000 </r>
       <r>    -6.9002     0.0000     4.0000 </r>
       <r>    -6.8264     0.0000     4.0000 </r>
       <r>    -6.7525     0.0000     4.0000 </r>
       <r>    -6.6787     0.0000     4.0000 </r>
       <r>    -6.6049     0.0000     4.0000 </r>
       <r>    -6.5311     0.0000     4.0000 </r>
       <r>    -6.4573     0.0000     4.0000 </r>
       <r>    -6.3835     0.0000     4.0000 </r>
       <r>    -6.3097     0.0000     4.0000 </r>
       <r>    -6.2359     0.0000     4.0000 </r>
       <r>    -6.1621     0.0000     4.0000 </r>
       <r>    -6.0882     0.0000     4.0000 </r>
       <r>    -6.0144     0.0000     4.0000 </r>
       <r>    -5.9406     0.0000     4.0000 </r>
       <r>    -5.8668     0.0000     4.0000 </r>
       <r>    -5.7930     0.0000     4.0000 </r>
       <r>    -5.7192     0.0000     4.0000 </r>
       <r>    -5.6454     0.0000     4.0000 </r>
       <r>    -5.5716     0.0000     4.0000 </r>
       <r>    -5.4977     0.0000     4.0000 </r>
       <r>    -5.4239     0.0000     4.0000 </r>
       <r>    -5.3501     0.0000     4.0000 </r>
       <r>    -5.2763     0.0000     4.0000 </r>
       <r>    -5.2025     0.0000     4.0000 </r>
       <r>    -5.1287     0.0000     4.0000 </r>
       <r>    -5.0549     0.0000     4.0000 </r>
       <r>    -4.9811     0.0000     4.0000 </r>
       <r>    -4.9072     0.0000     4.0000 </r>
       <r>    -4.8334     0.0000     4.0000 </r>
       <r>    -4.7596     0.0000     4.0000 </r>
       <r>    -4.6858     0.0000     4.0000 </r>
       <r>    -4.6120     0.0000     4.0000 </r>
       <r>    -4.5382     0.0000     4.0000 </r>
       <r>    -4.4644     0.0000     4.0000 </r>
       <r>    -4.3906     0.0000     4.0000 </r>
       <r>    -4.3168     0.0000     4.0000 </r>
       <r>    -4.2429     0.0000     4.0000 </r>
       <r>    -4.1691     0.0000     4.0000 </r>
       <r>    -4.0953     0.0000     4.0000 </r>
       <r>    -4.0215     0.0000     4.0000 </r>
       <r>    -3.9477     0.0000     4.0000 </r>
       <r>    -3.8739     0.0000     4.0000 </r>
       <r>    -3.8001     0.0000     4.0000 </r>
       <r>    -3.7263     0.0000     4.0000 </r>
       <r>    -3.6524     0.0000     4.0000 </r>
       <r>    -3.5786     0.0000     4.0000 </r>
       <r>    -3.5048     0.0000     4.0000 </r>
       <r>    -3.4310     0.0000     4.0000 </r>
       <r>    -3.3572     0.0000     4.0000 </r>
       <r>    -3.2834     0.0000     4.0000 </r>
       <r>    -3.2096     0.0000     4.0000 </r>
       <r>    -3.1358     0.0000     4.0000 </r>
       <r>    -3.0619     0.0000     4.0000 </r>
       <r>    -2.9881     0.0000     4.0000 </r>
       <r>    -2.9143     0.0000     4.0000 </r>
       <r>    -2.8405     0.0000     4.0000 </r>
       <r>    -2.7667     0.0000     4.0000 </r>
       <r>    -2.6929     0.0000     4.0000 </r>
       <r>    -2.6191     0.0000     4.0000 </r>
       <r>    -2.5453     0.0000     4.0000 </r>
       <r>    -2.4714     0.0000     4.0000 </r>
       <r>    -2.3976     0.0000     4.0000 </r>
       <r>    -2.3238     0.0000     4.0000 </r>
       <r>    -2.2500     0.0000     4.0000 </r>
       <r>    -2.1762     0.0000     4.0000 </r>
       <r>    -2.1024     0.0000     4.0000 </r>
       <r>    -2.0286     0.0000     4.0000 </r>
       <r>    -1.9548     0.0000     4.0000 </r>
       <r>    -1.8810     0.0000     4.0000 </r>
       <r>    -1.8071     0.0000     4.0000 </r>
       <r>    -1.7333     0.0000     4.0000 </r>
       <r>    -1.6595     0.0000     4.0000 </r>
       <r>    -1.5857     0.0000     4.0000 </r>
       <r>    -1.5119     0.0000     4.0000 </r>
       <r>    -1.4381     0.0000     4.0000 </r>
       <r>    -1.3643     0.0000     4.0000 </r>
       <r>    -1.2905     0.0000     4.0000 </r>
       <r>    -1.2166     0.0000     4.0000 </r>
       <r>    -1.1428     0.0001     4.0000 </r>
       <r>    -1.0690     0.0005     4.0000 </r>
       <r>    -0.9952     0.0040     4.0003 </r>
       <r>    -0.9214     0.0226     4.0020 </r>
       <r>    -0.8476     0.0982     4.0093 </r>
       <r>    -0.7738     0.3269     4.0334 </r>
       <r>    -0.7000     0.8331     4.0949 </r>
       <r>    -0.6261     1.6267     4.2149 </r>
       <r>    -0.5523     2.4334     4.3946 </r>
       <r>    -0.4785     2.7892     4.6004 </r>
       <r>    -0.4047     2.4496     4.7812 </r>
       <r>    -0.3309     1.6484     4.9029 </r>
       <r>    -0.2571     0.8498     4.9656 </r>
       <r>    -0.1833     0.3356     4.9904 </r>
       <r>    -0.1095     0.1015     4.9979 </r>
       <r>    -0.0357     0.0235     4.9996 </r>
       <r>     0.0382     0.0042     5.0000 </r>
       <r>     0.1120     0.0006     5.0000 </r>
       <r>     0.1858     0.0001     5.0000 </r>
       <r>     0.2596     0.0005     5.0000 </r>
       <r>     0.3334     0.0039     5.0003 </r>
       <r>     0.4072     0.0221     5.0020 </r>
       <r>     0.4810     0.0967     5.0091 </r>
       <r>     0.5548     0.3263     5.0332 </r>
       <r>     0.6287     0.8548     5.0963 </r>
       <r>     0.7025     1.7716     5.2270 </r>
       <r>     0.7763     3.0192     5.4499 </r>
       <r>     0.8501     4.5065     5.7825 </r>
       <r>     0.9239     6.2652     6.2450 </r>
       <r>     0.9977     8.1833     6.8490 </r>
       <r>     1.0715     9.5963     7.5573 </r>
       <r>     1.1453     9.6778     8.2717 </r>
       <r>     1.2192     8.3408     8.8873 </r>
       <r>     1.2930     6.2879     9.3514 </r>
       <r>     1.3668     4.2359     9.6641 </r>
       <r>     1.4406     2.5227     9.8503 </r>
       <r>     1.5144     1.2767     9.9445 </r>
       <r>     1.5882     0.5264     9.9834 </r>
       <r>     1.6620     0.1717     9.9960 </r>
       <r>     1.7358     0.0436     9.9993 </r>
       <r>     1.8096     0.0085     9.9999 </r>
       <r>     1.8835     0.0013    10.0000 </r>
       <r>     1.9573     0.0001    10.0000 </r>
       <r>     2.0311     0.0000    10.0000 </r>
       <r>     2.1049     0.0000    10.0000 </r>
       <r>     2.1787     0.0000    10.0000 </r>
       <r>     2.2525     0.0000    10.0000 </r>
       <r>     2.3263     0.0000    10.0000 </r>
       <r>     2.4001     0.0000    10.0000 </r>
       <r>     2.4740     0.0000    10.0000 </r>
       <r>     2.5478     0.0000    10.0000 </r>
       <r>     2.6216     0.0000    10.0000 </r>
       <r>     2.6954     0.0000    10.0000 </r>
       <r>     2.7692     0.0000    10.0000 </r>
       <r>     2.8430     0.0000    10.0000 </r>
       <r>     2.9168     0.0000    10.0000 </r>
       <r>     2.9906     0.0000    10.0000 </r>
       <r>     3.0645     0.0000    10.0000 </r>
       <r>     3.1383     0.0000    10.0000 </r>
       <r>     3.2121     0.0000    10.0000 </r>
       <r>     3.2859     0.0000    10.0000 </r>
      </set>
     </set>
    </array>
   </total>
  </dos>
 </calculation>
 <structure name="finalpos" >
  <crystal>
   <varray name="basis" >
    <v>      10.00000000       0.00000000       0.00000000 </v>
    <v>       0.00000000      10.00000000       0.00000000 </v>
    <v>       0.00000000       0.00000000      10.00000000 </v>
   </varray>
   <i name="volume">   1000.00000000 </i>
   <varray name="rec_basis" >
    <v>       0.10000000       0.00000000       0.00000000 </v>
    <v>       0.00000000       0.10000000       0.00000000 </v>
    <v>       0.00000000       0.00000000       0.10000000 </v>
   </varray>
  </crystal>
  <varray name="positions" >
   <v>       0.56361959       0.56361959       0.56361959 </v>
   <v>       0.43638041       0.43638041       0.56361959 </v>
   <v>       0.56361959       0.43638041       0.43638041 </v>
   <v>       0.43638041       0.56361959       0.43638041 </v>
   <v>       0.50000000       0.50000000       0.50000000 </v>
  </varray>
 </structure>
</modeling>
