 running on    1 nodes
 distr:  one band on    1 nodes,    1 groups
 vasp.5.2.12 11Nov11 complex                                                    
  
 POSCAR found :  1 types and       4 ions
 LDA part: xc-table for Pade appr. of Perdew
 POSCAR, INCAR and KPOINTS ok, starting setup
 WARNING: small aliasing (wrap around) errors must be expected
 FFT: planning ...(           2 )
 WAVECAR not read
 entering main loop
       N       E                     dE             d eps       ncg     rms          rms(c)
DAV:   1     0.143390872486E+02    0.14339E+02   -0.59164E+03  6064   0.543E+02
DAV:   2    -0.376444644385E+02   -0.51984E+02   -0.48681E+02  7996   0.142E+02
DAV:   3    -0.392423869910E+02   -0.15979E+01   -0.15859E+01  7336   0.213E+01
DAV:   4    -0.392503519906E+02   -0.79650E-02   -0.79626E-02  7360   0.183E+00
DAV:   5    -0.392504052559E+02   -0.53265E-04   -0.53263E-04  7272   0.138E-01    0.776E+00
DAV:   6    -0.374780209026E+02    0.17724E+01   -0.89975E-01  7104   0.541E+00    0.412E+00
DAV:   7    -0.369073485980E+02    0.57067E+00   -0.11621E+00  7160   0.616E+00    0.684E-01
DAV:   8    -0.369175388082E+02   -0.10190E-01   -0.59212E-02  6760   0.121E+00    0.148E-01
DAV:   9    -0.369163947912E+02    0.11440E-02   -0.17918E-03  7196   0.255E-01    0.432E-02
DAV:  10    -0.369165075468E+02   -0.11276E-03   -0.27396E-04  6904   0.920E-02    0.258E-02
DAV:  11    -0.369165065688E+02    0.97797E-06   -0.32183E-05  5628   0.372E-02
   1 F= -.36916507E+02 E0= -.36916508E+02  d E =-.369165E+02
 curvature:   0.00 expect dE= 0.000E+00 dE for cont linesearch  0.000E+00
 trial: gam= 0.00000 g(F)=  0.290E-40 g(S)=  0.000E+00 ort = 0.000E+00 (trialstep = 0.100E+01)
 search vector abs. value=  0.100E-09
 reached required accuracy - stopping structural energy minimisation
 writing wavefunctions
NPROCS =  1
