unknown system                          
   1.00000000000000     
     2.461200    0.000000    0.000000
    -1.230600    2.131462    0.000000
     0.000000    0.000000    6.707900
   C 
     4
Direct
  0.000000  0.000000  0.000000
  0.333333  0.666667  0.000000
  0.333333  0.666667  0.500000
  0.666667  0.333333  0.500000
 
   32   32   96
  48.544      50.653      56.010      62.194      66.552      67.430      64.753      59.683      53.730      47.982    
  42.918      38.794      35.589      33.142      31.345      30.209      29.815      30.209      31.345      33.142    
  35.589      38.794      42.918      47.982      53.730      59.683      64.753      67.430      66.552      62.194    
  56.010      50.653      50.653      50.652      53.916      58.808      62.923      64.297      62.274      57.546    
  51.493      45.355      39.789      35.098      31.404      28.597      26.528      25.124      24.400      24.399    
  25.123      26.528      28.597      31.403      35.098      39.790      45.356      51.492      57.544      62.273    
  64.297      62.923      58.809      53.917      56.010      54.838      56.010      58.809      61.498      62.284    
  60.240      55.634      49.558      43.211      37.346      32.271      28.181      25.039      22.701      21.049    
  20.044      19.703      20.044      21.049      22.701      25.039      28.181      32.271      37.346      43.211    
  49.558      55.634      60.240      62.284      61.498      58.809      62.194      61.366      61.367      62.195    
  62.923      62.283      59.449      54.475      48.180      41.606      35.499      30.160      25.772      22.353    
  19.777      17.908      16.667      16.040      16.041      16.667      17.908      19.777      22.354      25.773    
  30.159      35.498      41.605      48.181      54.476      59.449      62.284      62.923      66.552      67.471    
  67.683      67.471      66.552      64.297      60.240      54.476      47.674      40.722      34.304      28.703    
  24.057      20.398      17.611      15.552      14.114      13.254      12.966      13.254      14.114      15.552    
  17.611      20.398      24.057      28.703      34.304      40.722      47.674      54.476      60.240      64.297    
  67.430      70.802      72.423      72.424      70.803      67.431      62.274      55.634      48.180      40.721    
  33.884      27.943      23.005      19.094      16.095      13.852      12.240      11.185      10.661      10.661    
  11.185      12.240      13.852      16.094      19.094      23.005      27.944      33.885      40.722      48.181    
  55.634      62.273      64.753      70.418      74.000      75.219      74.000      70.418      64.753      57.544    
  49.558      41.605      34.304      27.944      22.647      18.432      15.182      12.734      10.944      9.7137    
  8.9904      8.7513      8.9904      9.7137      10.944      12.734      15.182      18.432      22.647      27.944    
  34.304      41.605      49.558      57.544      59.683      66.913      72.310      75.191      75.190      72.308    
  66.912      59.682      51.493      43.212      35.499      28.704      23.005      18.432      14.876      12.175    
  10.177      8.7639      7.8591      7.4171      7.4171      7.8591      8.7640      10.177      12.175      14.876    
  18.432      23.005      28.703      35.498      43.211      51.492      53.730      61.730      68.420      72.882    
  74.451      72.882      68.420      61.730      53.730      45.356      37.346      30.159      24.057      19.094    
  15.182      12.175      9.9222      8.2969      7.2040      6.5760      6.3714      6.5760      7.2040      8.2969    
  9.9222      12.175      15.182      19.094      24.057      30.159      37.346      45.356      47.982      56.236    
  63.713      69.444      72.566      72.567      69.446      63.714      56.237      47.982      39.789      32.270    
  25.772      20.399      16.095      12.734      10.177      8.2969      6.9896      6.1706      5.7781      5.7781    
  6.1706      6.9895      8.2969      10.177      12.734      16.094      20.398      25.773      32.271      39.790    
  42.918      51.183      59.148      65.864      70.381      71.976      70.381      65.864      59.148      51.183    
  42.918      35.098      28.181      22.354      17.611      13.852      10.944      8.7640      7.2040      6.1706    
  5.5863      5.3980      5.5863      6.1706      7.2040      8.7640      10.944      13.852      17.611      22.354    
  28.181      35.098      38.794      46.900      55.119      62.585      68.316      71.438      71.438      68.315    
  62.585      55.118      46.900      38.794      31.404      25.039      19.777      15.552      12.240      9.7138    
  7.8591      6.5760      5.7781      5.3980      5.3980      5.7781      6.5760      7.8591      9.7137      12.240    
  15.552      19.777      25.039      31.403      35.589      43.473      51.775      59.751      66.475      70.995    
  72.591      70.995      66.475      59.751      51.775      43.473      35.589      28.597      22.701      17.908    
  14.114      11.185      8.9904      7.4171      6.3714      5.7781      5.5863      5.7781      6.3714      7.4171    
  8.9904      11.185      14.114      17.908      22.701      28.597      33.142      40.756      49.005      57.301    
  64.792      70.511      73.615      73.615      70.510      64.791      57.301      49.006      40.756      33.142    
  26.528      21.049      16.667      13.254      10.661      8.7513      7.4171      6.5760      6.1706      6.1706    
  6.5760      7.4171      8.7513      10.661      13.254      16.667      21.049      26.528      31.345      38.614    
  46.679      55.063      62.994      69.550      73.880      75.393      73.880      69.550      62.994      55.063    
  46.679      38.614      31.345      25.123      20.044      16.041      12.966      10.661      8.9904      7.8591    
  7.2040      6.9896      7.2040      7.8591      8.9904      10.661      12.966      16.041      20.044      25.123    
  30.209      37.060      44.787      52.976      60.911      67.745      72.726      75.338      75.339      72.727    
  67.747      60.912      52.976      44.786      37.059      30.209      24.400      19.704      16.041      13.254    
  11.185      9.7138      8.7640      8.2969      8.2969      8.7639      9.7137      11.185      13.254      16.040    
  19.703      24.399      29.815      36.222      43.493      51.236      58.740      65.204      70.023      72.925    
  73.885      72.925      70.023      65.204      58.740      51.236      43.493      36.222      29.815      24.400    
  20.044      16.667      14.114      12.240      10.944      10.177      9.9222      10.177      10.944      12.240    
  14.114      16.667      20.044      24.400      30.209      36.221      43.026      50.217      57.028      62.622    
  66.490      68.664      69.560      69.559      68.663      66.489      62.621      57.028      50.218      43.027    
  36.222      30.209      25.123      21.049      17.908      15.552      13.852      12.734      12.175      12.175    
  12.734      13.852      15.552      17.908      21.049      25.124      31.345      37.059      43.493      50.218    
  56.371      60.977      63.476      64.105      63.784      63.531      63.784      64.105      63.476      60.977    
  56.372      50.218      43.493      37.059      31.345      26.528      22.701      19.777      17.611      16.095    
  15.182      14.876      15.182      16.095      17.611      19.777      22.701      26.528      33.142      38.614    
  44.787      51.237      57.028      60.976      62.291      61.170      58.875      57.121      57.122      58.876    
  61.170      62.291      60.977      57.028      51.236      44.786      38.614      33.142      28.597      25.039    
  22.354      20.399      19.094      18.432      18.432      19.094      20.398      22.353      25.039      28.597    
  35.589      40.756      46.679      52.976      58.740      62.621      63.476      61.170      56.953      53.018    
  51.426      53.018      56.953      61.170      63.476      62.621      58.740      52.976      46.679      40.756    
  35.589      31.404      28.181      25.772      24.057      23.005      22.647      23.005      24.057      25.772    
  28.181      31.404      38.794      43.473      49.005      55.062      60.911      65.205      66.490      64.105    
  58.875      53.018      49.194      49.193      53.018      58.876      64.105      66.489      65.204      60.912    
  55.063      49.006      43.473      38.794      35.098      32.270      30.159      28.704      27.944      27.943    
  28.703      30.160      32.271      35.098      42.918      46.900      51.775      57.301      62.994      67.747    
  70.023      68.663      63.784      57.122      51.426      49.194      51.426      57.122      63.784      68.663    
  70.023      67.747      62.994      57.301      51.775      46.900      42.918      39.789      37.346      35.499    
  34.304      33.884      34.304      35.499      37.346      39.789      47.982      51.185      55.119      59.751    
  64.792      69.550      72.726      72.924      69.560      63.533      57.122      53.018      53.018      57.121    
  63.531      69.559      72.925      72.727      69.550      64.791      59.751      55.118      51.183      47.982    
  45.356      43.212      41.605      40.721      40.722      41.606      43.211      45.355      53.730      56.237    
  59.148      62.585      66.475      70.510      73.880      75.339      73.885      69.560      63.784      58.875    
  56.953      58.875      63.784      69.560      73.885      75.339      73.880      70.510      66.475      62.585    
  59.148      56.237      53.730      51.493      49.558      48.180      47.674      48.180      49.558      51.493    
  59.683      61.729      63.713      65.864      68.316      70.995      73.615      75.395      75.339      72.924    
  68.663      64.105      61.170      61.170      64.105      68.664      72.925      75.338      75.393      73.615    
  70.995      68.315      65.864      63.714      61.730      59.682      57.544      55.634      54.476      54.475    
  55.634      57.546      64.753      66.912      68.420      69.446      70.381      71.438      72.591      73.615    
  73.880      72.726      70.023      66.490      63.476      62.291      63.476      66.490      70.023      72.726    
  73.880      73.615      72.591      71.438      70.381      69.446      68.420      66.912      64.753      62.274    
  60.240      59.449      60.240      62.274      67.430      70.418      72.310      72.884      72.566      71.974    
  71.438      70.995      70.510      69.550      67.747      65.205      62.621      60.976      60.977      62.622    
  65.204      67.745      69.550      70.511      70.995      71.438      71.976      72.567      72.882      72.308    
  70.418      67.431      64.297      62.283      62.284      64.297      66.552      70.803      74.000      75.190    
  74.451      72.566      70.381      68.316      66.475      64.792      62.994      60.911      58.740      57.028    
  56.371      57.028      58.740      60.911      62.994      64.792      66.475      68.316      70.381      72.566    
  74.451      75.190      74.000      70.803      66.552      62.923      61.498      62.923      62.194      67.471    
  72.424      75.218      75.190      72.884      69.446      65.864      62.585      59.751      57.301      55.062    
  52.976      51.237      50.218      50.217      51.236      52.976      55.063      57.301      59.751      62.585    
  65.864      69.444      72.882      75.191      75.219      72.424      67.471      62.195      58.809      58.808    
  56.010      61.367      67.683      72.424      74.000      72.310      68.420      63.713      59.148      55.119    
  51.775      49.005      46.679      44.787      43.493      43.026      43.493      44.787      46.679      49.005    
  51.775      55.119      59.148      63.713      68.420      72.310      74.000      72.423      67.683      61.367    
  56.010      53.916      50.653      54.839      61.367      67.471      70.803      70.418      66.912      61.729    
  56.237      51.185      46.900      43.473      40.756      38.614      37.059      36.221      36.222      37.060    
  38.614      40.756      43.473      46.900      51.183      56.236      61.730      66.913      70.418      70.802    
  67.471      61.366      54.838      50.652      49.260      51.250      56.292      62.069      66.049      66.674    
  63.895      58.843      52.970      47.312      42.333      38.282      35.134      32.731      30.965      29.849    
  29.462      29.849      30.965      32.731      35.134      38.282      42.333      47.313      52.970      58.843    
  63.895      66.674      66.049      62.068      56.292      51.251      51.250      51.250      54.307      58.858    
  62.608      63.699      61.528      56.781      50.791      44.744      39.264      34.652      31.020      28.258    
  26.222      24.838      24.125      24.125      24.838      26.222      28.259      31.020      34.652      39.266    
  44.746      50.790      56.780      61.527      63.699      62.608      58.859      54.308      56.292      55.208    
  56.292      58.859      61.255      61.783      59.583      54.937      48.909      42.648      36.869      31.874    
  27.850      24.757      22.454      20.824      19.832      19.496      19.832      20.824      22.454      24.757    
  27.850      31.874      36.869      42.648      48.909      54.937      59.583      61.783      61.255      58.859    
  62.069      61.359      61.359      62.069      62.608      61.783      58.826      53.821      47.570      41.079    
  35.059      29.798      25.479      22.111      19.572      17.727      16.502      15.884      15.884      16.502    
  17.727      19.572      22.112      25.479      29.798      35.058      41.079      47.571      53.822      58.827    
  61.783      62.608      66.049      67.056      67.302      67.056      66.049      63.699      59.583      53.822    
  47.078      40.215      33.888      28.366      23.789      20.184      17.436      15.402      13.982      13.133    
  12.848      13.132      13.982      15.402      17.436      20.184      23.789      28.366      33.888      40.215    
  47.078      53.822      59.583      63.699      66.674      70.062      71.701      71.701      70.063      66.675    
  61.528      54.937      47.570      40.214      33.477      27.619      22.752      18.897      15.938      13.723    
  12.130      11.088      10.570      10.569      11.088      12.131      13.723      15.938      18.897      22.752    
  27.619      33.477      40.215      47.571      54.937      61.527      63.895      69.499      73.048      74.258    
  73.048      69.499      63.895      56.780      48.909      41.079      33.888      27.619      22.399      18.244    
  15.037      12.619      10.849      9.6329      8.9176      8.6811      8.9176      9.6329      10.849      12.619    
  15.037      18.244      22.399      27.619      33.888      41.079      48.909      56.780      58.843      65.954    
  71.264      74.099      74.099      71.262      65.952      58.842      50.791      42.649      35.059      28.366    
  22.752      18.244      14.734      12.067      10.091      8.6935      7.7983      7.3611      7.3611      7.7983    
  8.6936      10.091      12.067      14.735      18.244      22.752      28.366      35.058      42.648      50.791    
  52.970      60.821      67.385      71.763      73.302      71.763      67.384      60.821      52.970      44.746    
  36.869      29.798      23.789      18.897      15.037      12.067      9.8394      8.2316      7.1502      6.5288    
  6.3264      6.5288      7.1502      8.2316      9.8394      12.067      15.037      18.897      23.789      29.798    
  36.869      44.746      47.312      55.411      62.742      68.358      71.416      71.417      68.359      62.743    
  55.412      47.312      39.264      31.873      25.479      20.184      15.938      12.619      10.091      8.2316    
  6.9381      6.1276      5.7392      5.7392      6.1276      6.9380      8.2316      10.091      12.619      15.938    
  20.184      25.479      31.874      39.265      42.333      50.442      58.251      64.833      69.257      70.819    
  69.257      64.833      58.251      50.442      42.333      34.652      27.850      22.112      17.436      13.723    
  10.849      8.6936      7.1502      6.1276      5.5495      5.3631      5.5495      6.1276      7.1502      8.6936    
  10.849      13.723      17.436      22.112      27.850      34.652      38.282      46.239      54.299      61.617    
  67.230      70.288      70.288      67.230      61.616      54.299      46.239      38.283      31.020      24.757    
  19.572      15.402      12.131      9.6330      7.7983      6.5288      5.7392      5.3631      5.3631      5.7392    
  6.5288      7.7983      9.6329      12.131      15.402      19.572      24.757      31.020      35.134      42.880    
  51.029      58.851      65.440      69.867      71.430      69.867      65.440      58.851      51.029      42.880    
  35.134      28.259      22.454      17.727      13.982      11.088      8.9176      7.3611      6.3264      5.7392    
  5.5495      5.7392      6.3264      7.3611      8.9176      11.088      13.982      17.727      22.454      28.259    
  32.731      40.218      48.323      56.464      63.811      69.419      72.462      72.462      69.418      63.810    
  56.464      48.324      40.219      32.731      26.222      20.824      16.502      13.132      10.570      8.6811    
  7.3611      6.5288      6.1276      6.1277      6.5288      7.3611      8.6811      10.570      13.133      16.502    
  20.824      26.222      30.965      38.120      46.050      54.288      62.078      68.519      72.774      74.262    
  72.774      68.519      62.078      54.288      46.050      38.120      30.965      24.838      19.832      15.884    
  12.848      10.570      8.9176      7.7983      7.1502      6.9381      7.1502      7.7983      8.9176      10.570    
  12.848      15.884      19.832      24.838      29.849      36.598      44.203      52.261      60.074      66.811    
  71.728      74.310      74.311      71.729      66.813      60.074      52.260      44.201      36.597      29.849    
  24.125      19.497      15.884      13.133      11.088      9.6330      8.6936      8.2316      8.2316      8.6935    
  9.6329      11.088      13.132      15.884      19.496      24.125      29.462      35.777      42.939      50.572    
  57.986      64.393      69.191      72.091      73.053      72.091      69.191      64.393      57.985      50.572    
  42.939      35.777      29.462      24.125      19.832      16.502      13.982      12.130      10.849      10.091    
  9.8394      10.091      10.849      12.131      13.982      16.502      19.832      24.125      29.849      35.776    
  42.484      49.584      56.339      61.930      65.844      68.084      69.026      69.026      68.083      65.843    
  61.929      56.339      49.585      42.485      35.777      29.849      24.838      20.824      17.727      15.402    
  13.723      12.619      12.067      12.067      12.619      13.724      15.402      17.727      20.824      24.838    
  30.965      36.597      42.939      49.585      55.708      60.358      62.979      63.767      63.581      63.380    
  63.581      63.767      62.979      60.358      55.708      49.585      42.939      36.597      30.965      26.222    
  22.454      19.572      17.436      15.938      15.037      14.734      15.037      15.938      17.436      19.572    
  22.454      26.222      32.731      38.121      44.203      50.573      56.339      60.358      61.851      60.980    
  58.929      57.326      57.326      58.929      60.980      61.851      60.358      56.339      50.572      44.201    
  38.120      32.731      28.259      24.758      22.112      20.184      18.897      18.244      18.244      18.897    
  20.184      22.111      24.757      28.258      35.134      40.219      46.050      52.260      57.985      61.929    
  62.979      60.980      57.105      53.437      51.947      53.437      57.105      60.980      62.979      61.929    
  57.985      52.260      46.050      40.219      35.134      31.020      27.850      25.479      23.789      22.752    
  22.399      22.752      23.789      25.479      27.850      31.020      38.282      42.879      48.323      54.287    
  60.074      64.395      65.844      63.767      58.929      53.437      49.834      49.834      53.438      58.930    
  63.767      65.843      64.393      60.075      54.288      48.323      42.880      38.283      34.652      31.873    
  29.798      28.366      27.619      27.619      28.366      29.799      31.874      34.652      42.333      46.239    
  51.029      56.464      62.078      66.813      69.191      68.083      63.581      57.326      51.947      49.834    
  51.947      57.326      63.581      68.083      69.191      66.813      62.078      56.464      51.029      46.239    
  42.333      39.264      36.869      35.059      33.888      33.477      33.888      35.059      36.869      39.264    
  47.313      50.444      54.299      58.851      63.811      68.519      71.728      72.090      69.027      63.381    
  57.326      53.437      53.437      57.326      63.380      69.026      72.091      71.729      68.519      63.811    
  58.851      54.298      50.442      47.312      44.746      42.649      41.079      40.215      40.215      41.079    
  42.648      44.745      52.970      55.412      58.251      61.616      65.440      69.418      72.774      74.311    
  73.053      69.026      63.581      58.929      57.105      58.928      63.581      69.027      73.053      74.310    
  72.774      69.418      65.440      61.616      58.251      55.412      52.970      50.791      48.909      47.570    
  47.078      47.570      48.909      50.791      58.843      60.819      62.742      64.834      67.230      69.867    
  72.462      74.263      74.310      72.090      68.083      63.767      60.980      60.980      63.767      68.084    
  72.091      74.310      74.262      72.462      69.867      67.229      64.833      62.743      60.821      58.842    
  56.780      54.938      53.822      53.821      54.937      56.781      63.895      65.952      67.384      68.359    
  69.257      70.288      71.430      72.462      72.774      71.728      69.191      65.844      62.979      61.851    
  62.979      65.844      69.191      71.728      72.774      72.462      71.430      70.288      69.257      68.359    
  67.384      65.952      63.895      61.528      59.583      58.826      59.583      61.528      66.674      69.499    
  71.264      71.764      71.416      70.817      70.288      69.867      69.418      68.519      66.813      64.394    
  61.929      60.358      60.358      61.930      64.393      66.812      68.519      69.418      69.867      70.288    
  70.819      71.416      71.763      71.262      69.499      66.675      63.699      61.783      61.783      63.699    
  66.049      70.063      73.048      74.099      73.302      71.416      69.257      67.230      65.440      63.811    
  62.078      60.074      57.985      56.339      55.708      56.339      57.986      60.074      62.078      63.811    
  65.440      67.230      69.257      71.416      73.302      74.099      73.048      70.063      66.049      62.608    
  61.255      62.608      62.068      67.056      71.701      74.257      74.099      71.764      68.359      64.833    
  61.616      58.851      56.464      54.287      52.260      50.573      49.585      49.584      50.572      52.261    
  54.288      56.464      58.851      61.617      64.833      68.358      71.763      74.100      74.258      71.701    
  67.056      62.069      58.859      58.858      56.292      61.359      67.303      71.701      73.048      71.264    
  67.384      62.742      58.251      54.299      51.029      48.323      46.050      44.203      42.939      42.484    
  42.939      44.203      46.050      48.323      51.029      54.299      58.251      62.742      67.385      71.264    
  73.048      71.701      67.302      61.359      56.292      54.307      51.251      55.209      61.359      67.056    
  70.063      69.498      65.952      60.820      55.412      50.444      46.239      42.880      40.219      38.120    
  36.597      35.777      35.777      36.598      38.120      40.218      42.880      46.239      50.442      55.411    
  60.821      65.954      69.499      70.063      67.056      61.358      55.208      51.250      51.001      52.665    
  56.841      61.504      64.467      64.418      61.384      56.404      50.767      45.372      40.638      36.801    
  33.817      31.535      29.858      28.800      28.433      28.799      29.858      31.535      33.817      36.800    
  40.639      45.372      50.767      56.403      61.384      64.418      64.467      61.504      56.841      52.666    
  52.665      52.664      55.156      58.777      61.541      61.874      59.322      54.549      48.753      42.972    
  37.743      33.359      29.906      27.274      25.329      24.006      23.324      23.324      24.006      25.329    
  27.275      29.905      33.359      37.744      42.973      48.752      54.547      59.321      61.874      61.540    
  58.777      55.158      56.841      55.998      56.841      58.777      60.383      60.225      57.622      52.894    
  47.019      41.011      35.484      30.720      26.888      23.936      21.731      20.167      19.215      18.892    
  19.215      20.167      21.731      23.936      26.888      30.720      35.484      41.011      47.019      52.894    
  57.622      60.225      60.383      58.777      61.504      61.113      61.113      61.504      61.540      60.224    
  56.959      51.894      45.789      39.545      33.778      28.745      24.623      21.406      18.972      17.199    
  16.020      15.425      15.425      16.020      17.199      18.973      21.407      24.623      28.745      33.777    
  39.544      45.789      51.895      56.960      60.225      61.540      64.467      65.700      66.038      65.699    
  64.467      61.874      57.622      51.895      45.337      38.739      32.675      27.382      23.006      19.557    
  16.921      14.965      13.596      12.776      12.502      12.776      13.596      14.965      16.921      19.557    
  23.006      27.382      32.675      38.738      45.337      51.895      57.622      61.873      64.418      67.832    
  69.509      69.509      67.833      64.419      59.322      52.894      45.788      38.738      32.288      26.672    
  22.014      18.321      15.480      13.347      11.809      10.803      10.301      10.301      10.803      11.810    
  13.347      15.479      18.321      22.014      26.673      32.289      38.739      45.789      52.894      59.321    
  61.384      66.797      70.243      71.421      70.243      66.797      61.384      54.548      47.019      39.544    
  32.675      26.673      21.676      17.693      14.612      12.282      10.572      9.3952      8.7032      8.4744    
  8.7032      9.3952      10.572      12.282      14.612      17.693      21.676      26.673      32.675      39.544    
  47.019      54.547      56.404      63.166      68.221      70.924      70.923      68.219      63.164      56.403    
  48.753      41.013      33.778      27.382      22.013      17.693      14.320      11.749      9.8392      8.4863    
  7.6194      7.1960      7.1960      7.6193      8.4863      9.8392      11.749      14.320      17.693      22.014    
  27.382      33.777      41.011      48.753      50.767      58.191      64.392      68.526      69.979      68.526    
  64.392      58.191      50.767      42.973      35.484      28.745      23.006      18.321      14.612      11.749    
  9.5958      8.0394      6.9917      6.3896      6.1934      6.3896      6.9917      8.0394      9.5958      11.749    
  14.612      18.321      23.006      28.745      35.484      42.973      45.372      53.028      59.940      65.226    
  68.102      68.103      65.227      59.941      53.029      45.371      37.743      30.720      24.624      19.557    
  15.480      12.281      9.8391      8.0394      6.7862      6.0009      5.6244      5.6244      6.0009      6.7862    
  8.0394      9.8392      12.282      15.479      19.557      24.624      30.720      37.744      40.639      48.302    
  55.665      61.861      66.019      67.487      66.019      61.861      55.665      48.302      40.639      33.359    
  26.888      21.407      16.921      13.347      10.572      8.4863      6.9917      6.0009      5.4405      5.2599    
  5.4405      6.0009      6.9917      8.4863      10.572      13.347      16.921      21.407      26.888      33.359    
  36.801      44.328      51.933      58.823      64.102      66.976      66.976      64.102      58.823      51.933    
  44.328      36.801      29.906      23.936      18.972      14.965      11.810      9.3953      7.6194      6.3896    
  5.6244      5.2599      5.2599      5.6244      6.3896      7.6193      9.3952      11.810      14.965      18.972    
  23.936      29.906      33.817      41.162      48.871      56.253      62.456      66.618      68.086      66.618    
  62.456      56.253      48.871      41.162      33.817      27.275      21.731      17.199      13.596      10.803    