unknown system                          
   1.00000000000000     
     2.461200    0.000000    0.000000
    -1.230600    2.131462    0.000000
     0.000000    0.000000    6.707900
   C 
     4
Direct
  0.000000  0.000000  0.000000
  0.333333  0.666667  0.000000
  0.333333  0.666667  0.500000
  0.666667  0.333333  0.500000
 
   32   32   96
 0.48543678739E+02 0.50653121668E+02 0.56009723938E+02 0.62194364885E+02 0.66551660962E+02
 0.67429760396E+02 0.64753157411E+02 0.59682910910E+02 0.53730386591E+02 0.47982321349E+02
 0.42918083511E+02 0.38793811415E+02 0.35588520099E+02 0.33141995082E+02 0.31344846414E+02
 0.30208786219E+02 0.29815138096E+02 0.30208784127E+02 0.31344845628E+02 0.33142000593E+02
 0.35588535391E+02 0.38793835346E+02 0.42918109075E+02 0.47982337809E+02 0.53730384681E+02
 0.59682888458E+02 0.64753121700E+02 0.67429725046E+02 0.66551638619E+02 0.62194360136E+02
 0.56009731202E+02 0.50653129683E+02 0.50653129683E+02 0.50652345755E+02 0.53915723855E+02
 0.58808336478E+02 0.62922637065E+02 0.64296810722E+02 0.62273678669E+02 0.57545761564E+02
 0.51492551113E+02 0.45354972391E+02 0.39788632265E+02 0.35098259776E+02 0.31403767984E+02
 0.28596729214E+02 0.26528083925E+02 0.25123787845E+02 0.24399744598E+02 0.24399168765E+02
 0.25123053459E+02 0.26528243488E+02 0.28596958187E+02 0.31403282442E+02 0.35098210282E+02
 0.39789990555E+02 0.45356331859E+02 0.51492181608E+02 0.57544287642E+02 0.62272740275E+02
 0.64296608075E+02 0.62922672259E+02 0.58808977473E+02 0.53917092996E+02 0.56009731202E+02
 0.54838084374E+02 0.56009692182E+02 0.58808915413E+02 0.61497892677E+02 0.62283934778E+02
 0.60239603114E+02 0.55633602954E+02 0.49558206412E+02 0.43210537313E+02 0.37345759830E+02
 0.32271488303E+02 0.28181243084E+02 0.25039116934E+02 0.22701392232E+02 0.21049374845E+02
 0.20043817496E+02 0.19703112313E+02 0.20043819923E+02 0.21049377853E+02 0.22701393313E+02
 0.25039114121E+02 0.28181235156E+02 0.32271474306E+02 0.37345739321E+02 0.43210512155E+02
 0.49558182994E+02 0.55633592145E+02 0.60239616094E+02 0.62283975974E+02 0.61497954168E+02
 0.58808977473E+02 0.62194360136E+02 0.61366224476E+02 0.61366651635E+02 0.62194988990E+02
 0.62922641576E+02 0.62283463987E+02 0.59448637963E+02 0.54475431976E+02 0.48180300497E+02
 0.41605687959E+02 0.35498725790E+02 0.30160127130E+02 0.25772489624E+02 0.22353137165E+02
 0.19777103666E+02 0.17907676925E+02 0.16666710450E+02 0.16040393747E+02 0.16040660273E+02
 0.16667015426E+02 0.17907582361E+02 0.19777184239E+02 0.22353745073E+02 0.25772712297E+02
 0.30159211033E+02 0.35497500740E+02 0.41605360174E+02 0.48180780837E+02 0.54475973815E+02
 0.59449131889E+02 0.62283975974E+02 0.62922672259E+02 0.66551638619E+02 0.67471065668E+02
 0.67682654208E+02 0.67471090337E+02 0.66551673729E+02 0.64296634144E+02 0.60239620164E+02
 0.54475956243E+02 0.47673640122E+02 0.40721737589E+02 0.34303575571E+02 0.28703152394E+02
 0.24057278563E+02 0.20398146949E+02 0.17611407827E+02 0.15551689299E+02 0.14114234056E+02
 0.13254057831E+02 0.12966228250E+02 0.13254058894E+02 0.14114235370E+02 0.15551689072E+02
 0.17611403959E+02 0.20398139053E+02 0.24057270032E+02 0.28703150084E+02 0.34303585876E+02
 0.40721760856E+02 0.47673667730E+02 0.54475973815E+02 0.60239616094E+02 0.64296608075E+02
 0.67429725046E+02 0.70802023090E+02 0.72423474509E+02 0.72423614746E+02 0.70802633453E+02
 0.67430834666E+02 0.62273703432E+02 0.55633760433E+02 0.48180294646E+02 0.40721151853E+02
 0.33884392707E+02 0.27943260700E+02 0.23005260546E+02 0.19094156310E+02 0.16094645547E+02
 0.13851889971E+02 0.12239810099E+02 0.11185405648E+02 0.10660721676E+02 0.10660672410E+02
 0.11185371670E+02 0.12239831391E+02 0.13851723188E+02 0.16094234852E+02 0.19093907750E+02
 0.23005488446E+02 0.27943777825E+02 0.33884949468E+02 0.40721760856E+02 0.48180780837E+02
 0.55633592145E+02 0.62272740275E+02 0.64753121700E+02 0.70418324460E+02 0.73999608364E+02
 0.75219493533E+02 0.73999643764E+02 0.70418380226E+02 0.64753175972E+02 0.57544322896E+02
 0.49558193376E+02 0.41605351344E+02 0.34303568891E+02 0.27943762007E+02 0.22647204769E+02
 0.18432351698E+02 0.15182273418E+02 0.12734097405E+02 0.10943860799E+02 0.97136955881E+01
 0.89904243432E+01 0.87512847125E+01 0.89904242437E+01 0.97136960426E+01 0.10943862371E+02
 0.12734100110E+02 0.15182277331E+02 0.18432357989E+02 0.22647215505E+02 0.27943777825E+02
 0.34303585876E+02 0.41605360174E+02 0.49558182994E+02 0.57544287642E+02 0.59682888458E+02
 0.66913482623E+02 0.72310001290E+02 0.75190732407E+02 0.75190159266E+02 0.72308463470E+02
 0.66911651053E+02 0.59681817454E+02 0.51492530162E+02 0.43211852915E+02 0.35498718100E+02
 0.28703545126E+02 0.23005263261E+02 0.18432064959E+02 0.14875742107E+02 0.12175143632E+02
 0.10176860075E+02 0.87638982592E+01 0.78590836033E+01 0.74171348316E+01 0.74171036812E+01
 0.78590549319E+01 0.87639567107E+01 0.10176967737E+02 0.12175226855E+02 0.14875875709E+02
 0.18432357989E+02 0.23005488446E+02 0.28703150084E+02 0.35497500740E+02 0.43210512155E+02
 0.51492181608E+02 0.53730384681E+02 0.61729755950E+02 0.68419631731E+02 0.72882440792E+02
 0.74451145086E+02 0.72882404439E+02 0.68419576665E+02 0.61729707040E+02 0.53730360157E+02
 0.45356334863E+02 0.37345759399E+02 0.30159233071E+02 0.24057283684E+02 0.19093911398E+02
 0.15182275559E+02 0.12175225033E+02 0.99221628844E+01 0.82969087963E+01 0.72040160253E+01
 0.65760107794E+01 0.63714172666E+01 0.65760095547E+01 0.72040137879E+01 0.82969065607E+01
 0.99221623400E+01 0.12175226855E+02 0.15182277331E+02 0.19093907750E+02 0.24057270032E+02
 0.30159211033E+02 0.37345739321E+02 0.45356331859E+02 0.47982337809E+02 0.56235774306E+02
 0.63712625722E+02 0.69444263215E+02 0.72565943675E+02 0.72566582486E+02 0.69445858981E+02
 0.63714326667E+02 0.56236601205E+02 0.47981835486E+02 0.39788645346E+02 0.32270349107E+02
 0.25772496509E+02 0.20398593310E+02 0.16094647614E+02 0.12734137418E+02 0.10176860068E+02
 0.82969199410E+01 0.69895665453E+01 0.61706062163E+01 0.57780674231E+01 0.57780874678E+01
 0.61705953717E+01 0.69894852386E+01 0.82969065607E+01 0.10176967737E+02 0.12734100110E+02
 0.16094234852E+02 0.20398139053E+02 0.25772712297E+02 0.32271474306E+02 0.39789990555E+02
 0.42918109075E+02 0.51183282128E+02 0.59147697333E+02 0.65864497322E+02 0.70380550523E+02
 0.71975755258E+02 0.70380523891E+02 0.65864456928E+02 0.59147661299E+02 0.51183263703E+02
 0.42918110519E+02 0.35098224015E+02 0.28181250310E+02 0.22353754314E+02 0.17611406251E+02
 0.13851721849E+02 0.10943861124E+02 0.87639570813E+01 0.72040151726E+01 0.61705966304E+01
 0.55863304194E+01 0.53979801760E+01 0.55863298038E+01 0.61705953717E+01 0.72040137879E+01
 0.87639567107E+01 0.10943862371E+02 0.13851723188E+02 0.17611403959E+02 0.22353745073E+02
 0.28181235156E+02 0.35098210282E+02 0.38793835346E+02 0.46899884697E+02 0.55118716886E+02
 0.62585477743E+02 0.68315795887E+02 0.71438148348E+02 0.71437814665E+02 0.68315012758E+02
 0.62584709767E+02 0.55118335402E+02 0.46899999225E+02 0.38794299329E+02 0.31403772525E+02
 0.25039329467E+02 0.19777095301E+02 0.15551534261E+02 0.12239810862E+02 0.97137667376E+01
 0.78590822144E+01 0.65759798547E+01 0.57780662435E+01 0.53979788185E+01 0.53979801760E+01
 0.57780874678E+01 0.65760095547E+01 0.78590549319E+01 0.97136960426E+01 0.12239831391E+02
 0.15551689072E+02 0.19777184239E+02 0.25039114121E+02 0.31403282442E+02 0.35588535391E+02
 0.43472683548E+02 0.51775007218E+02 0.59751121828E+02 0.66474711659E+02 0.70994732340E+02
 0.72590997146E+02 0.70994775011E+02 0.66474777403E+02 0.59751182642E+02 0.51775041765E+02
 0.43472686674E+02 0.35588517150E+02 0.28596934702E+02 0.22701376640E+02 0.17907575709E+02
 0.14114235078E+02 0.11185372525E+02 0.89904234897E+01 0.74171015406E+01 0.63714151388E+01
 0.57780662435E+01 0.55863304194E+01 0.57780674231E+01 0.63714172666E+01 0.74171036812E+01
 0.89904242437E+01 0.11185371670E+02 0.14114235370E+02 0.17907582361E+02 0.22701393313E+02
 0.28596958187E+02 0.33142000593E+02 0.40755633226E+02 0.49005180609E+02 0.57300628421E+02
 0.64791503647E+02 0.70510816249E+02 0.73615451283E+02 0.73615270521E+02 0.70510348797E+02
 0.64791023402E+02 0.57300538510E+02 0.49005649581E+02 0.40756328263E+02 0.33142366742E+02
 0.26528064920E+02 0.21048938572E+02 0.16666712387E+02 0.13254006019E+02 0.10660723060E+02
 0.87512975210E+01 0.74171015406E+01 0.65759798547E+01 0.61705966304E+01 0.61706062163E+01
 0.65760107794E+01 0.74171348316E+01 0.87512847125E+01 0.10660672410E+02 0.13254058894E+02
 0.16667015426E+02 0.21049377853E+02 0.26528243488E+02 0.31344845628E+02 0.38613773140E+02
 0.46679086519E+02 0.55063137368E+02 0.62993546485E+02 0.69549974767E+02 0.73880158187E+02
 0.75393436567E+02 0.73880172950E+02 0.69549995075E+02 0.62993559988E+02 0.55063136426E+02
 0.46679072439E+02 0.38613754294E+02 0.31344831406E+02 0.25123048647E+02 0.20043823097E+02
 0.16040666414E+02 0.12966232826E+02 0.10660723060E+02 0.89904234897E+01 0.78590822144E+01
 0.72040151726E+01 0.69895665453E+01 0.72040160253E+01 0.78590836033E+01 0.89904243432E+01
 0.10660721676E+02 0.12966228250E+02 0.16040660273E+02 0.20043819923E+02 0.25123053459E+02
 0.30208784127E+02 0.37060311513E+02 0.44787312981E+02 0.52976484551E+02 0.60911184581E+02
 0.67745227876E+02 0.72725555936E+02 0.75338446296E+02 0.75339087809E+02 0.72727036633E+02
 0.67746581113E+02 0.60911619223E+02 0.52975816139E+02 0.44786008586E+02 0.37059225930E+02
 0.30208578139E+02 0.24399757974E+02 0.19703805206E+02 0.16040666414E+02 0.13254006019E+02
 0.11185372525E+02 0.97137667376E+01 0.87639570813E+01 0.82969199410E+01 0.82969087963E+01
 0.87638982592E+01 0.97136955881E+01 0.11185405648E+02 0.13254057831E+02 0.16040393747E+02
 0.19703112313E+02 0.24399168765E+02 0.29815138096E+02 0.36222118615E+02 0.43493219556E+02
 0.51236128321E+02 0.58739905983E+02 0.65204114903E+02 0.70023320568E+02 0.72925483708E+02
 0.73884744665E+02 0.72925440509E+02 0.70023253554E+02 0.65204052067E+02 0.58739869300E+02
 0.51236124186E+02 0.43493239173E+02 0.36222146325E+02 0.29815161090E+02 0.24399757974E+02
 0.20043823097E+02 0.16666712387E+02 0.14114235078E+02 0.12239810862E+02 0.10943861124E+02
 0.10176860068E+02 0.99221628844E+01 0.10176860075E+02 0.10943860799E+02 0.12239810099E+02
 0.14114234056E+02 0.16666710450E+02 0.20043817496E+02 0.24399744598E+02 0.30208786219E+02
 0.36221281203E+02 0.43026031754E+02 0.50217035898E+02 0.57027883471E+02 0.62621708330E+02
 0.66490108641E+02 0.68664399845E+02 0.69559719702E+02 0.69558934506E+02 0.68662755653E+02
 0.66488804955E+02 0.62621189074E+02 0.57028068714E+02 0.50217946482E+02 0.43027379894E+02
 0.36222146325E+02 0.30208578139E+02 0.25123048647E+02 0.21048938572E+02 0.17907575709E+02
 0.15551534261E+02 0.13851721849E+02 0.12734137418E+02 0.12175225033E+02 0.12175143632E+02
 0.12734097405E+02 0.13851889971E+02 0.15551689299E+02 0.17907676925E+02 0.21049374845E+02
 0.25123787845E+02 0.31344846414E+02 0.37059229198E+02 0.43493226989E+02 0.50217921854E+02
 0.56371478168E+02 0.60976590250E+02 0.63475779653E+02 0.64105302312E+02 0.63784342830E+02
 0.63531166008E+02 0.63784341664E+02 0.64105304880E+02 0.63475791660E+02 0.60976613092E+02
 0.56371506656E+02 0.50217946482E+02 0.43493239173E+02 0.37059225930E+02 0.31344831406E+02
 0.26528064920E+02 0.22701376640E+02 0.19777095301E+02 0.17611406251E+02 0.16094647614E+02
 0.15182275559E+02 0.14875742107E+02 0.15182273418E+02 0.16094645547E+02 0.17611407827E+02
 0.19777103666E+02 0.22701392232E+02 0.26528083925E+02 0.33141995082E+02 0.38614077740E+02
 0.44787325734E+02 0.51237174523E+02 0.57027875783E+02 0.60975930872E+02 0.62290668860E+02
 0.61170032929E+02 0.58874685080E+02 0.57121152412E+02 0.57121708542E+02 0.58875579671E+02
 0.61170380299E+02 0.62290944333E+02 0.60976613092E+02 0.57028068714E+02 0.51236124186E+02
 0.44786008586E+02 0.38613754294E+02 0.33142366742E+02 0.28596934702E+02 0.25039329467E+02
 0.22353754314E+02 0.20398593310E+02 0.19093911398E+02 0.18432064959E+02 0.18432351698E+02
 0.19094156310E+02 0.20398146949E+02 0.22353137165E+02 0.25039116934E+02 0.28596729214E+02
 0.35588520099E+02 0.40756343482E+02 0.46679100887E+02 0.52975851390E+02 0.58739897596E+02
 0.62621194838E+02 0.63475766461E+02 0.61170329899E+02 0.56953267340E+02 0.53017637637E+02
 0.51426005794E+02 0.53017674139E+02 0.56953323226E+02 0.61170380299E+02 0.63475791660E+02
 0.62621189074E+02 0.58739869300E+02 0.52975816139E+02 0.46679072439E+02 0.40756328263E+02
 0.35588517150E+02 0.31403772525E+02 0.28181250310E+02 0.25772496509E+02 0.24057283684E+02
 0.23005263261E+02 0.22647204769E+02 0.23005260546E+02 0.24057278563E+02 0.25772489624E+02
 0.28181243084E+02 0.31403767984E+02 0.38793811415E+02 0.43472545945E+02 0.49005191996E+02
 0.55061972110E+02 0.60911185476E+02 0.65205257040E+02 0.66490084090E+02 0.64105074721E+02
 0.58874706599E+02 0.53017555584E+02 0.49193613237E+02 0.49193406791E+02 0.53017674139E+02
 0.58875579671E+02 0.64105304880E+02 0.66488804955E+02 0.65204052067E+02 0.60911619223E+02
 0.55063136426E+02 0.49005649581E+02 0.43472686674E+02 0.38794299329E+02 0.35098224015E+02
 0.32270349107E+02 0.30159233071E+02 0.28703545126E+02 0.27943762007E+02 0.27943260700E+02
 0.28703152394E+02 0.30160127130E+02 0.32271488303E+02 0.35098259776E+02 0.42918083511E+02
 0.46899964754E+02 0.51775010804E+02 0.57300521880E+02 0.62993563720E+02 0.67746604143E+02
 0.70023288764E+02 0.68662793432E+02 0.63784373854E+02 0.57121730657E+02 0.51426016708E+02
 0.49193613237E+02 0.51426005794E+02 0.57121708542E+02 0.63784341664E+02 0.68662755653E+02
 0.70023253554E+02 0.67746581113E+02 0.62993559988E+02 0.57300538510E+02 0.51775041765E+02
 0.46899999225E+02 0.42918110519E+02 0.39788645346E+02 0.37345759399E+02 0.35498718100E+02
 0.34303568891E+02 0.33884392707E+02 0.34303575571E+02 0.35498725790E+02 0.37345759830E+02
 0.39788632265E+02 0.47982321349E+02 0.51184562945E+02 0.55118708577E+02 0.59751170511E+02
 0.64791536647E+02 0.69549920446E+02 0.72725523514E+02 0.72924241491E+02 0.69559742717E+02
 0.63532776209E+02 0.57121730657E+02 0.53017555584E+02 0.53017637637E+02 0.57121152412E+02
 0.63531166008E+02 0.69558934506E+02 0.72925440509E+02 0.72727036633E+02 0.69549995075E+02
 0.64791023402E+02 0.59751182642E+02 0.55118335402E+02 0.51183263703E+02 0.47981835486E+02
 0.45356334863E+02 0.43211852915E+02 0.41605351344E+02 0.40721151853E+02 0.40721737589E+02
 0.41605687959E+02 0.43210537313E+02 0.45354972391E+02 0.53730386591E+02 0.56236626313E+02
 0.59147675453E+02 0.62584704751E+02 0.66474751346E+02 0.70510308873E+02 0.73880133565E+02
 0.75339064403E+02 0.73884745960E+02 0.69559742717E+02 0.63784373854E+02 0.58874706599E+02
 0.56953267340E+02 0.58874685080E+02 0.63784342830E+02 0.69559719702E+02 0.73884744665E+02
 0.75339087809E+02 0.73880172950E+02 0.70510348797E+02 0.66474777403E+02 0.62584709767E+02
 0.59147661299E+02 0.56236601205E+02 0.53730360157E+02 0.51492530162E+02 0.49558193376E+02
 0.48180294646E+02 0.47673640122E+02 0.48180300497E+02 0.49558206412E+02 0.51492551113E+02
 0.59682910910E+02 0.61728574634E+02 0.63712593171E+02 0.65864377660E+02 0.68315828333E+02
 0.70994907501E+02 0.73615442473E+02 0.75394569829E+02 0.75339064403E+02 0.72924241491E+02
 0.68662793432E+02 0.64105074721E+02 0.61170329899E+02 0.61170032929E+02 0.64105302312E+02
 0.68664399845E+02 0.72925483708E+02 0.75338446296E+02 0.75393436567E+02 0.73615270521E+02
 0.70994775011E+02 0.68315012758E+02 0.65864456928E+02 0.63714326667E+02 0.61729707040E+02
 0.59681817454E+02 0.57544322896E+02 0.55633760433E+02 0.54475956243E+02 0.54475431976E+02
 0.55633602954E+02 0.57545761564E+02 0.64753157411E+02 0.66911650227E+02 0.68419597183E+02
 0.69445895069E+02 0.70380563377E+02 0.71437844505E+02 0.72591008592E+02 0.73615442473E+02
 0.73880133565E+02 0.72725523514E+02 0.70023288764E+02 0.66490084090E+02 0.63475766461E+02
 0.62290668860E+02 0.63475779653E+02 0.66490108641E+02 0.70023320568E+02 0.72725555936E+02
 0.73880158187E+02 0.73615451283E+02 0.72590997146E+02 0.71437814665E+02 0.70380523891E+02
 0.69445858981E+02 0.68419576665E+02 0.66911651053E+02 0.64753175972E+02 0.62273703432E+02
 0.60239620164E+02 0.59448637963E+02 0.60239603114E+02 0.62273678669E+02 0.67429760396E+02
 0.70417905252E+02 0.72309977592E+02 0.72883888995E+02 0.72565932016E+02 0.71974277226E+02
 0.71437844505E+02 0.70994907501E+02 0.70510308873E+02 0.69549920446E+02 0.67746604143E+02
 0.65205257040E+02 0.62621194838E+02 0.60975930872E+02 0.60976590250E+02 0.62621708330E+02
 0.65204114903E+02 0.67745227876E+02 0.69549974767E+02 0.70510816249E+02 0.70994732340E+02
 0.71438148348E+02 0.71975755258E+02 0.72566582486E+02 0.72882404439E+02 0.72308463470E+02
 0.70418380226E+02 0.67430834666E+02 0.64296634144E+02 0.62283463987E+02 0.62283934778E+02
 0.64296810722E+02 0.66551660962E+02 0.70802608584E+02 0.73999607523E+02 0.75190119220E+02
 0.74451113527E+02 0.72565932016E+02 0.70380563377E+02 0.68315828333E+02 0.66474751346E+02
 0.64791536647E+02 0.62993563720E+02 0.60911185476E+02 0.58739897596E+02 0.57027875783E+02
 0.56371478168E+02 0.57027883471E+02 0.58739905983E+02 0.60911184581E+02 0.62993546485E+02
 0.64791503647E+02 0.66474711659E+02 0.68315795887E+02 0.70380550523E+02 0.72565943675E+02
 0.74451145086E+02 0.75190159266E+02 0.73999643764E+02 0.70802633453E+02 0.66551673729E+02
 0.62922641576E+02 0.61497892677E+02 0.62922637065E+02 0.62194364885E+02 0.67471381885E+02
 0.72423501124E+02 0.75218176952E+02 0.75190119220E+02 0.72883888995E+02 0.69445895069E+02
 0.65864377660E+02 0.62584704751E+02 0.59751170511E+02 0.57300521880E+02 0.55061972110E+02
 0.52975851390E+02 0.51237174523E+02 0.50217921854E+02 0.50217035898E+02 0.51236128321E+02
 0.52976484551E+02 0.55063137368E+02 0.57300628421E+02 0.59751121828E+02 0.62585477743E+02
 0.65864497322E+02 0.69444263215E+02 0.72882440792E+02 0.75190732407E+02 0.75219493533E+02
 0.72423614746E+02 0.67471090337E+02 0.62194988990E+02 0.58808915413E+02 0.58808336478E+02
 0.56009723938E+02 0.61366701311E+02 0.67682701140E+02 0.72423501124E+02 0.73999607523E+02
 0.72309977592E+02 0.68419597183E+02 0.63712593171E+02 0.59147675453E+02 0.55118708577E+02
 0.51775010804E+02 0.49005191996E+02 0.46679100887E+02 0.44787325734E+02 0.43493226989E+02
 0.43026031754E+02 0.43493219556E+02 0.44787312981E+02 0.46679086519E+02 0.49005180609E+02
 0.51775007218E+02 0.55118716886E+02 0.59147697333E+02 0.63712625722E+02 0.68419631731E+02
 0.72310001290E+02 0.73999608364E+02 0.72423474509E+02 0.67682654208E+02 0.61366651635E+02
 0.56009692182E+02 0.53915723855E+02 0.50653121668E+02 0.54839324130E+02 0.61366701311E+02
 0.67471381885E+02 0.70802608584E+02 0.70417905252E+02 0.66911650227E+02 0.61728574634E+02
 0.56236626313E+02 0.51184562945E+02 0.46899964754E+02 0.43472545945E+02 0.40756343482E+02
 0.38614077740E+02 0.37059229198E+02 0.36221281203E+02 0.36222118615E+02 0.37060311513E+02
 0.38613773140E+02 0.40755633226E+02 0.43472683548E+02 0.46899884697E+02 0.51183282128E+02
 0.56235774306E+02 0.61729755950E+02 0.66913482623E+02 0.70418324460E+02 0.70802023090E+02
 0.67471065668E+02 0.61366224476E+02 0.54838084374E+02 0.50652345755E+02 0.49259947565E+02
 0.51250445550E+02 0.56291555244E+02 0.62068505624E+02 0.66049351111E+02 0.66674069880E+02
 0.63895469872E+02 0.58843105593E+02 0.52969753036E+02 0.47312222210E+02 0.42332674052E+02
 0.38282400566E+02 0.35134365784E+02 0.32730598117E+02 0.30964945612E+02 0.29849161007E+02
 0.29462439599E+02 0.29848838862E+02 0.30964944887E+02 0.32730923397E+02 0.35134379914E+02
 0.38282102697E+02 0.42332698250E+02 0.47312558241E+02 0.52969751283E+02 0.58842763647E+02
 0.63895435086E+02 0.66674355497E+02 0.66049329114E+02 0.62068180665E+02 0.56291562412E+02
 0.51250773731E+02 0.51250453478E+02 0.51249614501E+02 0.54306726829E+02 0.58858279236E+02
 0.62608309930E+02 0.63698846461E+02 0.61527653929E+02 0.56780880981E+02 0.50790604012E+02
 0.44744052488E+02 0.39264182290E+02 0.34652493168E+02 0.31020279410E+02 0.28258443853E+02
 0.26221576798E+02 0.24838401955E+02 0.24125184333E+02 0.24124563526E+02 0.24837651373E+02
 0.26221828378E+02 0.28258674658E+02 0.31019582450E+02 0.34652253770E+02 0.39265592870E+02
 0.44745572904E+02 0.50790328572E+02 0.56779520760E+02 0.61526895558E+02 0.63698660485E+02
 0.62608084776E+02 0.58858663256E+02 0.54308079440E+02 0.56291562412E+02 0.55208238862E+02
 0.56291525132E+02 0.58858603900E+02 0.61254860132E+02 0.61783190076E+02 0.59582778875E+02
 0.54937378591E+02 0.48909254806E+02 0.42647624878E+02 0.36869394794E+02 0.31874352338E+02
 0.27850381055E+02 0.24757302147E+02 0.22453624737E+02 0.20824349713E+02 0.19832373824E+02
 0.19496282802E+02 0.19832375873E+02 0.20824352227E+02 0.22453625543E+02 0.24757299478E+02
 0.27850373681E+02 0.31874339185E+02 0.36869375316E+02 0.42647600866E+02 0.48909232472E+02
 0.54937368416E+02 0.59582791538E+02 0.61783229708E+02 0.61254919063E+02 0.58858663256E+02
 0.62068500918E+02 0.61358783202E+02 0.61359013050E+02 0.62068756086E+02 0.62607887966E+02
 0.61782647904E+02 0.58826097677E+02 0.53821248285E+02 0.47570371790E+02 0.41079055185E+02
 0.35059156208E+02 0.29798240887E+02 0.25478668321E+02 0.22111380019E+02 0.19571966444E+02
 0.17727239022E+02 0.16502073066E+02 0.15883662155E+02 0.15883834646E+02 0.16502260198E+02
 0.17727182566E+02 0.19572118330E+02 0.22111964400E+02 0.25478929069E+02 0.29797533425E+02
 0.35058064760E+02 0.41078550598E+02 0.47570531991E+02 0.53821613990E+02 0.58826576406E+02
 0.61783229708E+02 0.62608151274E+02 0.66049329114E+02 0.67055953852E+02 0.67302466719E+02
 0.67055840695E+02 0.66049362852E+02 0.63698685277E+02 0.59582794948E+02 0.53821596584E+02
 0.47078040708E+02 0.40215216956E+02 0.33887743944E+02 0.28365724957E+02 0.23788855181E+02
 0.20183650345E+02 0.17435550416E+02 0.15402316353E+02 0.13982456147E+02 0.13132615048E+02
 0.12848149052E+02 0.13132479008E+02 0.13982457357E+02 0.15402453273E+02 0.17435547130E+02
 0.20183506267E+02 0.23788847212E+02 0.28365859605E+02 0.33887753634E+02 0.40215102313E+02
 0.47078067514E+02 0.53821750937E+02 0.59582791538E+02 0.63698523538E+02 0.66674035243E+02
 0.70062433252E+02 0.71701174500E+02 0.71701424100E+02 0.70063326753E+02 0.66675438519E+02
 0.61527677331E+02 0.54937343875E+02 0.47569965109E+02 0.40214491040E+02 0.33476930523E+02
 0.27618850599E+02 0.22752256485E+02 0.18897093576E+02 0.15938114487E+02 0.13723496809E+02
 0.12130492693E+02 0.11088223439E+02 0.10569514925E+02 0.10569433613E+02 0.11088162808E+02
 0.12130571967E+02 0.13723411818E+02 0.15937702460E+02 0.18896757878E+02 0.22752372073E+02
 0.27619267025E+02 0.33477458880E+02 0.40215239260E+02 0.47570728163E+02 0.54937368416E+02
 0.61526632888E+02 0.63895435086E+02 0.69498844778E+02 0.73047652484E+02 0.74257845868E+02
 0.73047686614E+02 0.69498898561E+02 0.63895487479E+02 0.56779554908E+02 0.48909242762E+02
 0.41078542495E+02 0.33887737767E+02 0.27619252317E+02 0.22399295626E+02 0.18243947663E+02
 0.15037110989E+02 0.12619102551E+02 0.10849460857E+02 0.96329084277E+01 0.89175801127E+01
 0.86810801596E+01 0.89175800832E+01 0.96329089596E+01 0.10849462428E+02 0.12619105107E+02
 0.15037114554E+02 0.18243953358E+02 0.22399305483E+02 0.27619267025E+02 0.33887753634E+02
 0.41078550598E+02 0.48909232472E+02 0.56779520760E+02 0.58843083901E+02 0.65953989872E+02
 0.71263804721E+02 0.74099403749E+02 0.74098767056E+02 0.71262151274E+02 0.65952115539E+02
 0.58842070695E+02 0.50790985630E+02 0.42649011341E+02 0.35059149073E+02 0.28366062193E+02
 0.22751999881E+02 0.18243595737E+02 0.14734399850E+02 0.12066817258E+02 0.10091194877E+02
 0.86935009224E+01 0.77983258572E+01 0.73611108209E+01 0.73610774853E+01 0.77982971457E+01
 0.86935551482E+01 0.10091266175E+02 0.12066840674E+02 0.14734515927E+02 0.18243953358E+02
 0.22752323636E+02 0.28365722658E+02 0.35057917025E+02 0.42647600866E+02 0.50790542805E+02
 0.52969751283E+02 0.60820732441E+02 0.67384511186E+02 0.71762771947E+02 0.73301732647E+02
 0.71762735207E+02 0.67384458048E+02 0.60820686949E+02 0.52969727716E+02 0.44745575769E+02
 0.36869394402E+02 0.29797554172E+02 0.23788859829E+02 0.18896761043E+02 0.15037112807E+02
 0.12066839112E+02 0.98393550133E+01 0.82316206566E+01 0.71502264182E+01 0.65287998984E+01
 0.63263539611E+01 0.65287971995E+01 0.71502243462E+01 0.82316200579E+01 0.98393542722E+01
 0.12066839049E+02 0.15037114554E+02 0.18896759504E+02 0.23788847212E+02 0.29797531799E+02
 0.36869375316E+02 0.44745574530E+02 0.47312237988E+02 0.55411127115E+02 0.62741587498E+02
 0.68358021540E+02 0.71416094903E+02 0.71416661454E+02 0.68359427737E+02 0.62743068951E+02
 0.55411826651E+02 0.47311770971E+02 0.39264194622E+02 0.31873372520E+02 0.25478933734E+02
 0.20184090922E+02 0.15938116243E+02 0.12619084598E+02 0.10091119424E+02 0.82316258659E+01
 0.69380676873E+01 0.61276399615E+01 0.57391854934E+01 0.57392128752E+01 0.61276400342E+01
 0.69379886648E+01 0.82316184321E+01 0.10091258847E+02 0.12619105107E+02 0.15937758226E+02
 0.20183643214E+02 0.25479069475E+02 0.31874339185E+02 0.39265385966E+02 0.42332698250E+02
 0.50442494546E+02 0.58251435564E+02 0.64833397982E+02 0.69256573680E+02 0.70818589071E+02
 0.69256547917E+02 0.64833358969E+02 0.58251400870E+02 0.50442476923E+02 0.42332699721E+02
 0.34652266862E+02 0.27850387883E+02 0.22111972792E+02 0.17435548944E+02 0.13723410397E+02
 0.10849461318E+02 0.86935556477E+01 0.71502257182E+01 0.61276411626E+01 0.55494597543E+01
 0.53630659313E+01 0.55494592592E+01 0.61276400342E+01 0.71502243462E+01 0.86935551482E+01
 0.10849462428E+02 0.13723411818E+02 0.17435547130E+02 0.22111964400E+02 0.27850373681E+02
 0.34652253770E+02 0.38282422951E+02 0.46238956720E+02 0.54298899867E+02 0.61616525230E+02
 0.67230003474E+02 0.70287919336E+02 0.70287759499E+02 0.67229619181E+02 0.61616125072E+02
 0.54298664816E+02 0.46238960026E+02 0.38282613223E+02 0.31020024710E+02 0.24757414949E+02
 0.19571958755E+02 0.15402291928E+02 0.12130569109E+02 0.96329819946E+01 0.77983246143E+01
 0.65287844541E+01 0.57392074551E+01 0.53630635566E+01 0.53630659313E+01 0.57392217092E+01
 0.65287988253E+01 0.77982956401E+01 0.96329089596E+01 0.12130525035E+02 0.15402316325E+02
 0.19571969090E+02 0.24757299478E+02 0.31019798189E+02 0.35134379914E+02 0.42879622808E+02
 0.51028919375E+02 0.58850971274E+02 0.65439558566E+02 0.69866780030E+02 0.71429958403E+02
 0.69866844188E+02 0.65439621960E+02 0.58851006926E+02 0.51028952804E+02 0.42879649155E+02
 0.35134362908E+02 0.28258652761E+02 0.22453610175E+02 0.17727176611E+02 0.13982457204E+02
 0.11088163526E+02 0.89175792093E+01 0.73610753837E+01 0.63263519905E+01 0.57391844493E+01
 0.55494597543E+01 0.57392084993E+01 0.63263539611E+01 0.73610544795E+01 0.89175800832E+01
 0.11088185814E+02 0.13982457357E+02 0.17727159560E+02 0.22453625543E+02 0.28258697664E+02
 0.32730603144E+02 0.40218100256E+02 0.48323092188E+02 0.56464391800E+02 0.63811223955E+02
 0.69418557495E+02 0.72461849591E+02 0.72461527378E+02 0.69417749460E+02 0.63810404965E+02
 0.56464154586E+02 0.48323657280E+02 0.40219029801E+02 0.32731183055E+02 0.26221558748E+02
 0.20823894635E+02 0.16501999365E+02 0.13132482797E+02 0.10569516003E+02 0.86810868025E+01
 0.73610523778E+01 0.65287574705E+01 0.61276411626E+01 0.61276581111E+01 0.65287982726E+01
 0.73610853429E+01 0.86810801596E+01 0.10569507529E+02 0.13132615955E+02 0.16502382455E+02
 0.20824352227E+02 0.26221639624E+02 0.30964944887E+02 0.38120312055E+02 0.46050431961E+02
 0.54287838334E+02 0.62077959682E+02 0.68519234459E+02 0.72774387170E+02 0.74261699305E+02
 0.72774401414E+02 0.68519253913E+02 0.62077972298E+02 0.54287836783E+02 0.46050417731E+02
 0.38120293485E+02 0.30964931137E+02 0.24837646920E+02 0.19832379079E+02 0.15883840491E+02
 0.12848153202E+02 0.10569516003E+02 0.89175792093E+01 0.77983246143E+01 0.71502257182E+01
 0.69380676873E+01 0.71502264182E+01 0.77983258572E+01 0.89175801127E+01 0.10569514925E+02
 0.12848149052E+02 0.15883834646E+02 0.19832375873E+02 0.24837651373E+02 0.29849159115E+02
 0.36598456417E+02 0.44202657577E+02 0.52260723631E+02 0.60073806353E+02 0.66811245730E+02
 0.71727777925E+02 0.74309921930E+02 0.74310584695E+02 0.71729337252E+02 0.66812724879E+02
 0.60074338800E+02 0.52260069409E+02 0.44201312489E+02 0.36597313428E+02 0.29848866547E+02
 0.24125272494E+02 0.19496934655E+02 0.15883840491E+02 0.13132517912E+02 0.11088186532E+02
 0.96329738628E+01 0.86935556477E+01 0.82316428316E+01 0.82316222825E+01 0.86934912850E+01
 0.96329084277E+01 0.11088184639E+02 0.13132478101E+02 0.15883504783E+02 0.19496282802E+02
 0.24124787396E+02 0.29462439599E+02 0.35777229131E+02 0.42939425350E+02 0.50572262024E+02
 0.57985500110E+02 0.64393422803E+02 0.69190694547E+02 0.72091457647E+02 0.73052727371E+02
 0.72091340845E+02 0.69190630528E+02 0.64393438281E+02 0.57985464970E+02 0.50572182377E+02
 0.42939443896E+02 0.35777330936E+02 0.29462461367E+02 0.24125196950E+02 0.19832379079E+02
 0.16502074909E+02 0.13982457204E+02 0.12130493565E+02 0.10849461318E+02 0.10091194968E+02
 0.98393550133E+01 0.10091119334E+02 0.10849460857E+02 0.12130568236E+02 0.13982456147E+02
 0.16501997522E+02 0.19832373824E+02 0.24125259877E+02 0.29848840753E+02 0.35776300349E+02
 0.42483583793E+02 0.49584349661E+02 0.56339161352E+02 0.61929805202E+02 0.65843919900E+02
 0.68084165305E+02 0.69026363579E+02 0.69025626254E+02 0.68082674063E+02 0.65842807957E+02
 0.61929334236E+02 0.56339172285E+02 0.49585034192E+02 0.42484863481E+02 0.35777255393E+02
 0.29848755473E+02 0.24837646920E+02 0.20823970593E+02 0.17727153605E+02 0.15402188986E+02
 0.13723410397E+02 0.12619178707E+02 0.12066837487E+02 0.12066715822E+02 0.12619102551E+02
 0.13723646683E+02 0.15402453301E+02 0.17727285321E+02 0.20824349713E+02 0.24838289159E+02
 0.30964945612E+02 0.36597316640E+02 0.42939431935E+02 0.49585009820E+02 0.55707671570E+02
 0.60358237472E+02 0.62978629751E+02 0.63767121990E+02 0.63580563256E+02 0.63379895803E+02
 0.63580561872E+02 0.63767124254E+02 0.62978641505E+02 0.60358260139E+02 0.55707699873E+02
 0.49585034192E+02 0.42939443896E+02 0.36597313428E+02 0.30964931137E+02 0.26221558748E+02
 0.22453610175E+02 0.19571958755E+02 0.17435548944E+02 0.15938116243E+02 0.15037112807E+02