   4   4   0   0
  0.8797333E+01  0.2461200E-09  0.2461200E-09  0.6707900E-09  0.5000000E-15
  1.000000000000000E-004
  CAR 
 unknown system                          
      4.84080238    -15.50963810  301      3.92420118      1.00000000
    -15.510  0.0000E+00  0.0000E+00
    -15.442  0.0000E+00  0.0000E+00
    -15.374  0.0000E+00  0.0000E+00
    -15.306  0.0000E+00  0.0000E+00
    -15.238  0.0000E+00  0.0000E+00
    -15.170  0.0000E+00  0.0000E+00
    -15.103  0.0000E+00  0.0000E+00
    -15.035  0.0000E+00  0.0000E+00
    -14.967  0.0000E+00  0.0000E+00
    -14.899  0.0000E+00  0.0000E+00
    -14.831  0.0000E+00  0.0000E+00
    -14.763  0.0000E+00  0.0000E+00
    -14.696 -0.1776E-53 -0.1205E-54
    -14.628 -0.1717E-08 -0.1165E-09
    -14.560  0.1845E+00  0.1252E-01
    -14.492  0.1881E+00  0.2526E-01
    -14.424 -0.6043E-04  0.2500E-01
    -14.356  0.1843E+00  0.3750E-01
    -14.289  0.1845E+00  0.5001E-01
    -14.221  0.0000E+00  0.5000E-01
    -14.153  0.0000E+00  0.5000E-01
    -14.085  0.0000E+00  0.5000E-01
    -14.017  0.0000E+00  0.5000E-01
    -13.949 -0.5351E-49  0.5000E-01
    -13.882 -0.7358E-07  0.5000E-01
    -13.814  0.1843E+00  0.6250E-01
    -13.746  0.1845E+00  0.7502E-01
    -13.678 -0.5449E-02  0.7463E-01
    -13.610  0.1895E+00  0.8749E-01
    -13.542  0.1844E+00  0.1000E+00
    -13.475  0.0000E+00  0.1000E+00
    -13.407  0.0000E+00  0.1000E+00
    -13.339  0.0000E+00  0.1000E+00
    -13.271  0.0000E+00  0.1000E+00
    -13.203  0.0000E+00  0.1000E+00
    -13.135  0.0000E+00  0.1000E+00
    -13.068  0.0000E+00  0.1000E+00
    -13.000  0.0000E+00  0.1000E+00
    -12.932  0.0000E+00  0.1000E+00
    -12.864  0.0000E+00  0.1000E+00
    -12.796  0.0000E+00  0.1000E+00
    -12.728  0.0000E+00  0.1000E+00
    -12.661  0.0000E+00  0.1000E+00
    -12.593  0.0000E+00  0.1000E+00
    -12.525 -0.4911E-87  0.1000E+00
    -12.457 -0.1115E-23  0.1000E+00
    -12.389  0.2539E-01  0.1017E+00
    -12.321  0.3990E+00  0.1288E+00
    -12.254  0.3127E+00  0.1500E+00
    -12.186  0.3685E+00  0.1750E+00
    -12.118  0.3686E+00  0.2000E+00
    -12.050  0.0000E+00  0.2000E+00
    -11.982  0.0000E+00  0.2000E+00
    -11.914  0.0000E+00  0.2000E+00
    -11.847  0.0000E+00  0.2000E+00
    -11.779 -0.4121E-55  0.2000E+00
    -11.711 -0.4051E-09  0.2000E+00
    -11.643  0.1848E+00  0.2125E+00
    -11.575  0.1843E+00  0.2250E+00
    -11.507  0.1481E+00  0.2350E+00
    -11.440  0.1909E+00  0.2480E+00
    -11.372  0.2952E-01  0.2500E+00
    -11.304  0.0000E+00  0.2500E+00
    -11.236  0.0000E+00  0.2500E+00
    -11.168  0.0000E+00  0.2500E+00
    -11.100  0.0000E+00  0.2500E+00
    -11.033  0.0000E+00  0.2500E+00
    -10.965  0.0000E+00  0.2500E+00
    -10.897  0.0000E+00  0.2500E+00
    -10.829  0.0000E+00  0.2500E+00
    -10.761  0.0000E+00  0.2500E+00
    -10.693  0.0000E+00  0.2500E+00
    -10.626  0.0000E+00  0.2500E+00
    -10.558  0.0000E+00  0.2500E+00
    -10.490  0.0000E+00  0.2500E+00
    -10.422 -0.2170E-78  0.2500E+00
    -10.354 -0.2627E-19  0.2500E+00
    -10.286  0.2141E+00  0.2645E+00
    -10.219  0.5354E+00  0.3008E+00
    -10.151  0.2124E+00  0.3144E+00
    -10.083  0.5349E+00  0.3507E+00
    -10.015 -0.1020E-01  0.3500E+00
     -9.947  0.0000E+00  0.3500E+00
     -9.879  0.0000E+00  0.3500E+00
     -9.812  0.0000E+00  0.3500E+00
     -9.744  0.0000E+00  0.3500E+00
     -9.676  0.0000E+00  0.3500E+00
     -9.608  0.0000E+00  0.3500E+00
     -9.540  0.0000E+00  0.3500E+00
     -9.472  0.0000E+00  0.3500E+00
     -9.405  0.0000E+00  0.3500E+00
     -9.337  0.0000E+00  0.3500E+00
     -9.269  0.0000E+00  0.3500E+00
     -9.201  0.0000E+00  0.3500E+00
     -9.133  0.0000E+00  0.3500E+00
     -9.065  0.0000E+00  0.3500E+00
     -8.997  0.0000E+00  0.3500E+00
     -8.930  0.0000E+00  0.3500E+00
     -8.862  0.0000E+00  0.3500E+00
     -8.794 -0.6159E-86  0.3500E+00
     -8.726 -0.2944E-23  0.3500E+00
     -8.658  0.2281E-01  0.3515E+00
     -8.590  0.3496E+00  0.3753E+00
     -8.523  0.3646E+00  0.4000E+00
     -8.455  0.0000E+00  0.4000E+00
     -8.387  0.0000E+00  0.4000E+00
     -8.319  0.0000E+00  0.4000E+00
     -8.251  0.0000E+00  0.4000E+00
     -8.183  0.0000E+00  0.4000E+00
     -8.116  0.0000E+00  0.4000E+00
     -8.048  0.0000E+00  0.4000E+00
     -7.980  0.0000E+00  0.4000E+00
     -7.912  0.0000E+00  0.4000E+00
     -7.844 -0.2646E-44  0.4000E+00
     -7.776 -0.2669E-05  0.4000E+00
     -7.709  0.5714E+00  0.4388E+00
     -7.641  0.1657E+00  0.4500E+00
     -7.573  0.0000E+00  0.4500E+00
     -7.505 -0.1950E-89  0.4500E+00
     -7.437 -0.6223E-25  0.4500E+00
     -7.369  0.1900E-02  0.4501E+00
     -7.302  0.7407E+00  0.5004E+00
     -7.234  0.3656E+00  0.5248E+00
     -7.166  0.3719E+00  0.5500E+00
     -7.098  0.0000E+00  0.5500E+00
     -7.030  0.0000E+00  0.5500E+00
     -6.962  0.0000E+00  0.5500E+00
     -6.895  0.0000E+00  0.5500E+00
     -6.827  0.0000E+00  0.5500E+00
     -6.759  0.0000E+00  0.5500E+00
     -6.691  0.0000E+00  0.5500E+00
     -6.623  0.0000E+00  0.5500E+00
     -6.555  0.0000E+00  0.5500E+00
     -6.488  0.0000E+00  0.5500E+00
     -6.420  0.0000E+00  0.5500E+00
     -6.352  0.0000E+00  0.5500E+00
     -6.284  0.0000E+00  0.5500E+00
     -6.216  0.0000E+00  0.5500E+00
     -6.148 -0.4120E-46  0.5500E+00
     -6.081 -0.6972E-06  0.5500E+00
     -6.013  0.1928E+00  0.5631E+00
     -5.945  0.3240E+00  0.5851E+00
     -5.877  0.2203E+00  0.6000E+00
     -5.809  0.0000E+00  0.6000E+00
     -5.741  0.0000E+00  0.6000E+00
     -5.674  0.0000E+00  0.6000E+00
     -5.606  0.0000E+00  0.6000E+00
     -5.538  0.0000E+00  0.6000E+00
     -5.470  0.0000E+00  0.6000E+00
     -5.402  0.0000E+00  0.6000E+00
     -5.334  0.0000E+00  0.6000E+00
     -5.267  0.0000E+00  0.6000E+00
     -5.199 -0.7227E-79  0.6000E+00
     -5.131 -0.1075E-19  0.6000E+00
     -5.063  0.1045E+00  0.6071E+00
     -4.995  0.4019E+00  0.6344E+00
     -4.927  0.2307E+00  0.6500E+00
     -4.860  0.0000E+00  0.6500E+00
     -4.792  0.0000E+00  0.6500E+00
     -4.724  0.0000E+00  0.6500E+00
     -4.656  0.0000E+00  0.6500E+00
     -4.588  0.0000E+00  0.6500E+00
     -4.520  0.0000E+00  0.6500E+00
     -4.453 -0.7870E-68  0.6500E+00
     -4.385 -0.2544E-14  0.6500E+00
     -4.317  0.3750E+00  0.6754E+00
     -4.249  0.7108E+00  0.7237E+00
     -4.181  0.3884E+00  0.7500E+00
     -4.113  0.0000E+00  0.7500E+00
     -4.046  0.0000E+00  0.7500E+00
     -3.978  0.0000E+00  0.7500E+00
     -3.910  0.0000E+00  0.7500E+00
     -3.842  0.0000E+00  0.7500E+00
     -3.774  0.0000E+00  0.7500E+00
     -3.706  0.0000E+00  0.7500E+00
     -3.639  0.0000E+00  0.7500E+00
     -3.571  0.0000E+00  0.7500E+00
     -3.503  0.0000E+00  0.7500E+00
     -3.435 -0.1205E-64  0.7500E+00
     -3.367 -0.4548E-13  0.7500E+00
     -3.299  0.1904E+00  0.7629E+00
     -3.232  0.0000E+00  0.7625E+00
     -3.164  0.0000E+00  0.7625E+00
     -3.096  0.0000E+00  0.7625E+00
     -3.028  0.0000E+00  0.7625E+00
     -2.960 -0.7636E-51  0.7625E+00
     -2.892 -0.1624E-07  0.7625E+00
     -2.825  0.1843E+00  0.7750E+00
     -2.757 -0.5677E-03  0.7750E+00
     -2.689  0.7368E+00  0.8249E+00
     -2.621  0.7393E+00  0.8750E+00
     -2.553 -0.1514E-77  0.8750E+00
     -2.485 -0.4785E-19  0.8750E+00
     -2.418  0.1218E+00  0.8833E+00
     -2.350  0.6243E-01  0.8875E+00
     -2.282  0.0000E+00  0.8875E+00
     -2.214 -0.1043E-34  0.8875E+00
     -2.146 -0.8856E-03  0.8874E+00
     -2.078  0.1852E+00  0.9000E+00
     -2.011 -0.1153E-06  0.9000E+00
     -1.943  0.6391E+00  0.9434E+00
     -1.875  0.1035E+01  0.1013E+01
     -1.807  0.0000E+00  0.1012E+01
     -1.739  0.0000E+00  0.1012E+01
     -1.671 -0.3506E-84  0.1012E+01
     -1.604 -0.2332E-22  0.1012E+01
     -1.536  0.3901E-01  0.1015E+01
     -1.468  0.6184E+00  0.1057E+01
     -1.400  0.2661E+00  0.1075E+01
     -1.332  0.1931E+00  0.1088E+01
     -1.264  0.6909E+00  0.1135E+01
     -1.196  0.3745E-01  0.1137E+01
     -1.129  0.0000E+00  0.1137E+01
     -1.061  0.0000E+00  0.1137E+01
     -0.993  0.0000E+00  0.1137E+01
     -0.925  0.0000E+00  0.1137E+01
     -0.857  0.0000E+00  0.1137E+01
     -0.789 -0.5476E-36  0.1137E+01
     -0.722 -0.5037E-03  0.1137E+01
     -0.654  0.5533E+00  0.1175E+01
     -0.586  0.0000E+00  0.1175E+01
     -0.518 -0.5637E-46  0.1175E+01
     -0.450 -0.7751E-06  0.1175E+01
     -0.382  0.7154E+00  0.1224E+01
     -0.315  0.2806E-01  0.1225E+01
     -0.247  0.3686E+00  0.1250E+01
     -0.179  0.0000E+00  0.1250E+01
     -0.111  0.0000E+00  0.1250E+01
     -0.043  0.0000E+00  0.1250E+01
      0.025 -0.8011E-29  0.1250E+01
      0.092 -0.6166E-02  0.1250E+01
      0.160  0.1904E+00  0.1263E+01
      0.228 -0.3032E-28  0.1262E+01
      0.296 -0.6652E-02  0.1262E+01
      0.364  0.8835E+00  0.1322E+01
      0.432  0.2291E+00  0.1337E+01
      0.499  0.1803E+00  0.1350E+01
      0.567  0.3928E-02  0.1350E+01
      0.635  0.0000E+00  0.1350E+01
      0.703  0.0000E+00  0.1350E+01
      0.771 -0.5121E-51  0.1350E+01
      0.839 -0.2183E-07  0.1350E+01
      0.906  0.3687E+00  0.1375E+01
      0.974 -0.1469E-02  0.1375E+01
      1.042  0.7433E+00  0.1425E+01
      1.110  0.1844E+00  0.1438E+01
      1.178  0.0000E+00  0.1438E+01
      1.246  0.0000E+00  0.1438E+01
      1.313  0.0000E+00  0.1438E+01
      1.381  0.0000E+00  0.1438E+01
      1.449 -0.3336E-41  0.1438E+01
      1.517 -0.2218E-04  0.1437E+01
      1.585  0.2442E+00  0.1454E+01
      1.653  0.3086E+00  0.1475E+01
      1.720  0.0000E+00  0.1475E+01
      1.788 -0.1565E-61  0.1475E+01
      1.856 -0.1485E-11  0.1475E+01
      1.924  0.3766E+00  0.1501E+01
      1.992  0.0000E+00  0.1500E+01
      2.060  0.0000E+00  0.1500E+01
      2.127  0.0000E+00  0.1500E+01
      2.195  0.0000E+00  0.1500E+01
      2.263 -0.3909E-48  0.1500E+01
      2.331 -0.2307E-06  0.1500E+01
      2.399  0.3686E+00  0.1525E+01
      2.467  0.0000E+00  0.1525E+01
      2.534  0.0000E+00  0.1525E+01
      2.602 -0.2668E-37  0.1525E+01
      2.670 -0.3969E-03  0.1525E+01
      2.738  0.3689E+00  0.1550E+01
      2.806  0.0000E+00  0.1550E+01
      2.874  0.0000E+00  0.1550E+01
      2.941  0.0000E+00  0.1550E+01
      3.009  0.0000E+00  0.1550E+01
      3.077  0.0000E+00  0.1550E+01
      3.145  0.0000E+00  0.1550E+01
      3.213 -0.6742E-42  0.1550E+01
      3.281 -0.1402E-04  0.1550E+01
      3.348  0.1843E+00  0.1563E+01
      3.416 -0.4696E-70  0.1562E+01
      3.484 -0.1734E-15  0.1562E+01
      3.552  0.1849E+00  0.1575E+01
      3.620 -0.6259E-03  0.1575E+01
      3.688 -0.4915E-62  0.1575E+01
      3.755 -0.6092E-12  0.1575E+01
      3.823  0.1884E+00  0.1588E+01
      3.891 -0.2473E-03  0.1587E+01
      3.959  0.1845E+00  0.1600E+01
      4.027  0.0000E+00  0.1600E+01
      4.095  0.0000E+00  0.1600E+01
      4.162  0.0000E+00  0.1600E+01
      4.230  0.0000E+00  0.1600E+01
      4.298  0.0000E+00  0.1600E+01
      4.366  0.0000E+00  0.1600E+01
      4.434  0.0000E+00  0.1600E+01
      4.502  0.0000E+00  0.1600E+01
      4.569  0.0000E+00  0.1600E+01
      4.637  0.0000E+00  0.1600E+01
      4.705  0.0000E+00  0.1600E+01
      4.773  0.0000E+00  0.1600E+01
      4.841  0.0000E+00  0.1600E+01
