    4    4   10    1
  0.8797333E+01  0.2461200E-09  0.2461200E-09  0.6707900E-09  0.5000000E-15
  1.000000000000000E-004
  CAR 
 unknown system                          
   16   12    8
 
  0.1250000E+00  0.1250000E+00  0.1250000E+00  0.6250000E-01
   1      -13.843203
   2      -13.584777
   3       -2.419466
   4       -1.497889
   5       -1.457838
   6       -0.698521
   7       -0.415256
   8       -0.387084
 
  0.3750000E+00  0.1250000E+00  0.1250000E+00  0.1250000E+00
   1      -10.287318
   2      -10.093122
   3       -7.361268
   4       -7.214226
   5       -2.732345
   6       -2.657958
   7        1.589165
   8        2.695250
 
 -0.3750000E+00  0.1250000E+00  0.1250000E+00  0.1250000E+00
   1      -12.382983
   2      -12.148825
   3       -4.327234
   4       -4.225495
   5       -1.956604
   6       -1.894414
   7       -0.691497
   8        0.879445
 
 -0.1250000E+00  0.1250000E+00  0.1250000E+00  0.6250000E-01
   1      -14.584618
   2      -14.313938
   3       -3.312967
   4       -1.532003
   5        0.308531
   6        0.352653
   7        0.994278
   8        1.026362
 
  0.3750000E+00  0.3750000E+00  0.1250000E+00  0.6250000E-01
   1       -8.653211
   2       -8.558958
   3       -7.743311
   4       -7.702373
   5       -5.063888
   6       -4.969345
   7        3.310966
   8        3.915782
 
 -0.3750000E+00  0.3750000E+00  0.1250000E+00  0.6250000E-01
   1      -11.666032
   2      -11.444023
   3       -6.045391
   4       -5.907633
   5       -1.340082
   6       -1.290428
   7        0.105855
   8        1.546439
 
  0.1250000E+00  0.1250000E+00  0.3750000E+00  0.6250000E-01
   1      -13.770467
   2      -13.663540
   3       -1.972727
   4       -1.486607
   5       -1.468794
   6       -1.268122
   7       -0.407706
   8       -0.395993
 
  0.3750000E+00  0.1250000E+00  0.3750000E+00  0.1250000E+00
   1      -10.231993
   2      -10.151594
   3       -7.319505
   4       -7.258637
   5       -2.711042
   6       -2.680158
   7        1.907621
   8        2.368700
 
 -0.3750000E+00  0.1250000E+00  0.3750000E+00  0.1250000E+00
   1      -12.316783
   2      -12.219872
   3       -4.297841
   4       -4.255745
   5       -1.938869
   6       -1.913073
   7       -0.278381
   8        0.365363
 
 -0.1250000E+00  0.1250000E+00  0.3750000E+00  0.6250000E-01
   1      -14.508591
   2      -14.396637
   3       -2.851975
   4       -2.124697
   5        0.321456
   6        0.339667
   7        1.003634
   8        1.016754
 
  0.3750000E+00  0.3750000E+00  0.3750000E+00  0.6250000E-01
   1       -8.622272
   2       -8.582898
   3       -7.736855
   4       -7.719522
   5       -5.037564
   6       -4.998344
   7        3.543363
   8        3.807191
 
 -0.3750000E+00  0.3750000E+00  0.3750000E+00  0.6250000E-01
   1      -11.603216
   2      -11.511285
   3       -6.005934
   4       -5.948840
   5       -1.325705
   6       -1.305159
   7        0.491789
   8        1.084205
