       N       E                     dE             d eps       ncg     rms          rms(c)
DAV:   1    -0.346935044666E+02   -0.34694E+02   -0.98734E+02   224   0.214E+02    0.238E+00
DAV:   2    -0.362926460943E+02   -0.15991E+01   -0.16895E+01   232   0.433E+01    0.928E-01
DAV:   3    -0.368177373280E+02   -0.52509E+00   -0.52267E+00   232   0.556E+00    0.509E-01
DAV:   4    -0.368350593649E+02   -0.17322E-01   -0.15713E-01   200   0.183E+00    0.386E-02
DAV:   5    -0.368356524365E+02   -0.59307E-03   -0.54729E-03   168   0.315E-01    0.168E-02
DAV:   6    -0.368356743015E+02   -0.21865E-04   -0.17243E-04   112   0.103E-01
   1 F= -.36835674E+02 E0= -.36835686E+02  d E =-.368357E+02
