<?xml version="1.0" encoding="ISO-8859-1"?>
<modeling>
 <generator>
  <i name="program" type="string">vasp </i>
  <i name="version" type="string">5.2.12  </i>
  <i name="subversion" type="string">11Nov11 complex                                                      parallel </i>
  <i name="platform" type="string">LinuxIFC </i>
  <i name="date" type="string">2012 10 24 </i>
  <i name="time" type="string">18:44:11 </i>
 </generator>
 <incar>
  <i type="string" name="PREC">normal</i>
  <i type="int" name="IBRION">     2</i>
  <i type="int" name="NSW">    10</i>
  <i name="ENCUT">    700.00000000</i>
  <i type="int" name="NBANDS">     8</i>
  <i name="SIGMA">      0.01000000</i>
 </incar>
 <kpoints>
  <generation param="Monkhorst-Pack">
   <v type="int" name="divisions">       4        4        4 </v>
   <v name="usershift">      0.00000000       0.00000000       0.00000000 </v>
   <v name="genvec1">      0.25000000       0.00000000       0.00000000 </v>
   <v name="genvec2">      0.00000000       0.25000000       0.00000000 </v>
   <v name="genvec3">      0.00000000       0.00000000       0.25000000 </v>
   <v name="shift">      0.50000000       0.50000000       0.50000000 </v>
  </generation>
  <varray name="kpointlist" >
   <v>       0.12500000       0.12500000       0.12500000 </v>
   <v>       0.37500000       0.12500000       0.12500000 </v>
   <v>      -0.37500000       0.12500000       0.12500000 </v>
   <v>      -0.12500000       0.12500000       0.12500000 </v>
   <v>       0.37500000       0.37500000       0.12500000 </v>
   <v>      -0.37500000       0.37500000       0.12500000 </v>
   <v>       0.12500000       0.12500000       0.37500000 </v>
   <v>       0.37500000       0.12500000       0.37500000 </v>
   <v>      -0.37500000       0.12500000       0.37500000 </v>
   <v>      -0.12500000       0.12500000       0.37500000 </v>
   <v>       0.37500000       0.37500000       0.37500000 </v>
   <v>      -0.37500000       0.37500000       0.37500000 </v>
  </varray>
  <varray name="weights" >
   <v>       0.06250000 </v>
   <v>       0.12500000 </v>
   <v>       0.12500000 </v>
   <v>       0.06250000 </v>
   <v>       0.06250000 </v>
   <v>       0.06250000 </v>
   <v>       0.06250000 </v>
   <v>       0.12500000 </v>
   <v>       0.12500000 </v>
   <v>       0.06250000 </v>
   <v>       0.06250000 </v>
   <v>       0.06250000 </v>
  </varray>
 </kpoints>
 <parameters>
  <separator name="general" >
   <i type="string" name="SYSTEM">unknown system</i>
   <i type="logical" name="LCOMPAT"> F  </i>
  </separator>
  <separator name="electronic" >
   <i type="string" name="PREC">normal</i>
   <i name="ENMAX">    700.00000000</i>
   <i name="ENAUG">    644.87300000</i>
   <i name="EDIFF">      0.00010000</i>
   <i type="int" name="IALGO">    38</i>
   <i type="int" name="IWAVPR">    11</i>
   <i type="int" name="NBANDS">     8</i>
   <i name="NELECT">     16.00000000</i>
   <i type="int" name="TURBO">     0</i>
   <i type="int" name="IRESTART">     0</i>
   <i type="int" name="NREBOOT">     0</i>
   <i type="int" name="NMIN">     0</i>
   <i name="EREF">      0.00000000</i>
   <separator name="electronic smearing" >
    <i type="int" name="ISMEAR">     1</i>
    <i name="SIGMA">      0.01000000</i>
    <i name="KSPACING">      0.50000000</i>
    <i type="logical" name="KGAMMA"> T  </i>
   </separator>
   <separator name="electronic projectors" >
    <i type="logical" name="LREAL"> F  </i>
    <v name="ROPT">      0.00000000</v>
    <i type="int" name="LMAXPAW">  -100</i>
    <i type="int" name="LMAXMIX">     2</i>
    <i type="logical" name="NLSPLINE"> F  </i>
   </separator>
   <separator name="electronic startup" >
    <i type="int" name="ISTART">     1</i>
    <i type="int" name="ICHARG">     0</i>
    <i type="int" name="INIWAV">     1</i>
   </separator>
   <separator name="electronic spin" >
    <i type="int" name="ISPIN">     1</i>
    <i type="logical" name="LNONCOLLINEAR"> F  </i>
    <v name="MAGMOM">      1.00000000      1.00000000      1.00000000      1.00000000</v>
    <i name="NUPDOWN">     -1.00000000</i>
    <i type="logical" name="LSORBIT"> F  </i>
    <v name="SAXIS">      0.00000000      0.00000000      1.00000000</v>
    <i type="logical" name="LSPIRAL"> F  </i>
    <v name="QSPIRAL">      0.00000000      0.00000000      0.00000000</v>
    <i type="logical" name="LZEROZ"> F  </i>
   </separator>
   <separator name="electronic exchange-correlation" >
    <i type="logical" name="LASPH"> F  </i>
    <i type="logical" name="LMETAGGA"> F  </i>
   </separator>
   <separator name="electronic convergence" >
    <i type="int" name="NELM">    60</i>
    <i type="int" name="NELMDL">     0</i>
    <i type="int" name="NELMIN">     2</i>
    <i name="ENINI">    700.00000000</i>
    <separator name="electronic convergence detail" >
     <i type="logical" name="LDIAG"> T  </i>
     <i type="logical" name="LSUBROT"> T  </i>
     <i name="WEIMIN">      0.00100000</i>
     <i name="EBREAK">      0.00000313</i>
     <i name="DEPER">      0.30000000</i>
     <i type="int" name="NRMM">     4</i>
     <i name="TIME">      0.40000000</i>
    </separator>
   </separator>
   <separator name="electronic mixer" >
    <i name="AMIX">      0.40000000</i>
    <i name="BMIX">      1.00000000</i>
    <i name="AMIN">      0.10000000</i>
    <i name="AMIX_MAG">      1.60000000</i>
    <i name="BMIX_MAG">      1.00000000</i>
    <separator name="electronic mixer details" >
     <i type="int" name="IMIX">     4</i>
     <i type="int" name="MAXMIX">   -45</i>
     <i name="WC">    100.00000000</i>
     <i type="int" name="INIMIX">     1</i>
     <i type="int" name="MIXPRE">     1</i>
     <i type="int" name="MREMOVE">     5</i>
    </separator>
   </separator>
   <separator name="electronic dipolcorrection" >
    <i type="logical" name="LDIPOL"> F  </i>
    <i type="logical" name="LMONO"> F  </i>
    <i type="int" name="IDIPOL">     0</i>
    <i name="EPSILON">      1.00000000</i>
    <v name="DIPOL">   -100.00000000   -100.00000000   -100.00000000</v>
    <i name="EFIELD">      0.00000000</i>
   </separator>
  </separator>
  <separator name="grids" >
   <i type="int" name="NGX">    16</i>
   <i type="int" name="NGY">    16</i>
   <i type="int" name="NGZ">    48</i>
   <i type="int" name="NGXF">    32</i>
   <i type="int" name="NGYF">    32</i>
   <i type="int" name="NGZF">    96</i>
   <i type="logical" name="ADDGRID"> F  </i>
  </separator>
  <separator name="ionic" >
   <i type="int" name="NSW">    10</i>
   <i type="int" name="IBRION">     2</i>
   <i type="int" name="ISIF">     2</i>
   <i name="PSTRESS">      0.00000000</i>
   <i name="EDIFFG">      0.00100000</i>
   <i type="int" name="NFREE">     1</i>
   <i name="POTIM">      0.50000000</i>
   <i name="SMASS">     -3.00000000</i>
   <i name="SCALEE">      1.00000000</i>
  </separator>
  <separator name="ionic md" >
   <i name="TEBEG">      0.00010000</i>
   <i name="TEEND">      0.00010000</i>
   <i type="int" name="NBLOCK">     1</i>
   <i type="int" name="KBLOCK">    10</i>
   <i type="int" name="NPACO">   256</i>
   <i name="APACO">     16.00000000</i>
  </separator>
  <separator name="symmetry" >
   <i type="int" name="ISYM">     2</i>
   <i name="SYMPREC">      0.00001000</i>
  </separator>
  <separator name="dos" >
   <i type="logical" name="LORBIT"> F  </i>
   <v name="RWIGS">     -1.00000000</v>
   <i type="int" name="NEDOS">   301</i>
   <i name="EMIN">     10.00000000</i>
   <i name="EMAX">    -10.00000000</i>
   <i name="EFERMI">      0.00000000</i>
  </separator>
  <separator name="writing" >
   <i type="int" name="NWRITE">     2</i>
   <i type="logical" name="LWAVE"> T  </i>
   <i type="logical" name="LCHARG"> T  </i>
   <i type="logical" name="LPARD"> F  </i>
   <i type="logical" name="LVTOT"> F  </i>
   <i type="logical" name="LVHAR"> F  </i>
   <i type="logical" name="LELF"> F  </i>
   <i type="logical" name="LOPTICS"> F  </i>
   <v name="STM">      0.00000000      0.00000000      0.00000000      0.00000000      0.00000000      0.00000000      0.00000000</v>
  </separator>
  <separator name="performance" >
   <i type="int" name="NPAR">     1</i>
   <i type="int" name="NSIM">     4</i>
   <i type="int" name="NBLK">    -1</i>
   <i type="logical" name="LPLANE"> T  </i>
   <i type="logical" name="LSCALAPACK"> F  </i>
   <i type="logical" name="LSCAAWARE"> F  </i>
   <i type="logical" name="LSCALU"> F  </i>
   <i type="logical" name="LASYNC"> F  </i>
   <i type="logical" name="LORBITALREAL"> F  </i>
  </separator>
  <separator name="miscellaneous" >
   <i type="int" name="IDIOT">     3</i>
   <i type="logical" name="LMUSIC"> F  </i>
   <v name="POMASS">     12.01100000</v>
   <v name="DARWINR">      0.00000000</v>
   <v name="DARWINV">      1.00000000</v>
   <i type="logical" name="LCORR"> T  </i>
  </separator>
  <i type="logical" name="GGA_COMPAT"> T  </i>
  <i type="logical" name="LBERRY"> F  </i>
  <i type="int" name="ICORELEVEL">     0</i>
  <i type="logical" name="LDAU"> F  </i>
  <i type="int" name="I_CONSTRAINED_M">     0</i>
  <separator name="electronic exchange-correlation" >
   <i type="string" name="GGA">--</i>
   <i type="int" name="VOSKOWN">     0</i>
   <i type="logical" name="LHFCALC"> F  </i>
   <i type="string" name="PRECFOCK"></i>
   <i type="logical" name="LHFONE"> F  </i>
   <i type="logical" name="LRHFCALC"> F  </i>
   <i type="logical" name="LTHOMAS"> F  </i>
   <i type="logical" name="LMODELHF"> F  </i>
   <i name="ENCUT4O">     -1.00000000</i>
   <i type="int" name="EXXOEP">     0</i>
   <i type="int" name="FOURORBIT">     0</i>
   <i name="AEXX">      0.00000000</i>
   <i name="HFALPHA">      0.00000000</i>
   <i name="ALDAX">      1.00000000</i>
   <i name="AGGAX">      1.00000000</i>
   <i name="ALDAC">      1.00000000</i>
   <i name="AGGAC">      1.00000000</i>
   <i type="int" name="NKREDX">     1</i>
   <i type="int" name="NKREDY">     1</i>
   <i type="int" name="NKREDZ">     1</i>
   <i type="logical" name="SHIFTRED"> F  </i>
   <i type="logical" name="ODDONLY"> F  </i>
   <i type="logical" name="EVENONLY"> F  </i>
   <i type="int" name="LMAXFOCK">     0</i>
   <i type="int" name="NMAXFOCKAE">     0</i>
   <i type="logical" name="LFOCKAEDFT"> F  </i>
   <i name="HFSCREEN">      0.00000000</i>
   <i name="HFSCREENC">      0.00000000</i>
  </separator>
  <separator name="vdW DFT" >
   <i type="logical" name="LUSE_VDW"> F  </i>
   <i name="Zab_VDW">     -0.84910000</i>
   <i name="PARAM1">      0.12340000</i>
   <i name="PARAM2">      1.00000000</i>
   <i name="PARAM3">      0.00000000</i>
  </separator>
  <separator name="model GW" >
   <i type="int" name="MODEL_GW">     0</i>
   <i name="MODEL_EPS0">      5.27839982</i>
   <i name="MODEL_ALPHA">      1.00000000</i>
  </separator>
  <separator name="linear response parameters" >
   <i type="logical" name="LEPSILON"> F  </i>
   <i type="logical" name="LRPA"> F  </i>
   <i type="logical" name="LNABLA"> F  </i>
   <i type="logical" name="LVEL"> F  </i>
   <i type="int" name="KINTER">     0</i>
   <i name="CSHIFT">      0.10000000</i>
   <i name="OMEGAMAX">     -1.00000000</i>
  </separator>
  <separator name="orbital magnetization" >
   <i type="logical" name="NUCIND"> F  </i>
   <v name="MAGPOS">      0.00000000      0.00000000      0.00000000</v>
   <i type="logical" name="LNICSALL"> T  </i>
   <i type="logical" name="ORBITALMAG"> F  </i>
   <i type="logical" name="LMAGBLOCH"> F  </i>
   <i type="logical" name="LCHIMAG"> F  </i>
   <i type="logical" name="LGAUGE"> T  </i>
   <i type="int" name="MAGATOM">     0</i>
   <v name="MAGDIPOL">      0.00000000      0.00000000      0.00000000</v>
   <v name="AVECCONST">      0.00000000      0.00000000      0.00000000</v>
  </separator>
  <separator name="response functions" >
   <i type="logical" name="LADDER"> F  </i>
   <i type="logical" name="LHARTREE"> T  </i>
   <i type="int" name="IBSE">     0</i>
   <i type="logical" name="LTCTE"> F  </i>
   <i type="logical" name="LTETE"> F  </i>
   <i type="logical" name="LFXCEPS"> F  </i>
   <i type="logical" name="L2ORDER"> F  </i>
   <i type="logical" name="LUSEW"> F  </i>
   <i name="ENCUTGW">     -2.00000000</i>
   <i name="ENCUTGWSOFT">     -2.00000000</i>
   <i name="ENCUTLF">     -1.00000000</i>
   <i type="int" name="LMAXMP2">    -1</i>
   <i name="SCISSOR">      0.00000000</i>
   <i type="int" name="NOMEGA">     0</i>
   <i type="int" name="NOMEGAR">     0</i>
   <i type="int" name="NBANDSGW">    -1</i>
   <i type="int" name="NBANDSO">    -1</i>
   <i type="int" name="NBANDSV">    -1</i>
   <i name="OPTEMAX">      0.00000000</i>
   <i type="int" name="NELM">     1</i>
   <i type="int" name="DIM">     3</i>
   <i type="int" name="ANTIRES">     0</i>
   <i name="OMEGAMAX">    -30.00000000</i>
   <i name="OMEGATL">   -200.00000000</i>
   <i type="int" name="OMEGAGRID">     0</i>
   <i name="CSHIFT">     -0.10000000</i>
   <i type="logical" name="SELFENERGY"> F  </i>
   <i type="logical" name="LSPECTRAL"> F  </i>
   <i type="logical" name="ODDONLYGW"> F  </i>
   <i type="logical" name="EVENONLYGW"> F  </i>
   <i type="int" name="NKREDLFX">     1</i>
   <i type="int" name="NKREDLFY">     1</i>
   <i type="int" name="NKREDLFZ">     1</i>
   <i type="int" name="MAXMEM">  1800</i>
   <i type="int" name="TELESCOPE">     0</i>
  </separator>
 </parameters>
 <atominfo>
  <atoms>       4 </atoms>
  <types>       1 </types>
  <array name="atoms" >
   <dimension dim="1">ion</dimension>
   <field type="string">element</field>
   <field type="int">atomtype</field>
   <set>
    <rc><c>C </c><c>   1</c></rc>
    <rc><c>C </c><c>   1</c></rc>
    <rc><c>C </c><c>   1</c></rc>
    <rc><c>C </c><c>   1</c></rc>
   </set>
  </array>
  <array name="atomtypes" >
   <dimension dim="1">type</dimension>
   <field type="int">atomspertype</field>
   <field type="string">element</field>
   <field>mass</field>
   <field>valence</field>
   <field type="string">pseudopotential</field>
   <set>
    <rc><c>   4</c><c>C </c><c>     12.01100000</c><c>      4.00000000</c><c> PAW_PBE C 08Apr2002                    </c></rc>
   </set>
  </array>
 </atominfo>
 <structure name="initialpos" >
  <crystal>
   <varray name="basis" >
    <v>       2.46120000       0.00000000       0.00000000 </v>
    <v>      -1.23060000       2.13146172       0.00000000 </v>
    <v>       0.00000000       0.00000000       6.70790000 </v>
   </varray>
   <i name="volume">     35.18933212 </i>
   <varray name="rec_basis" >
    <v>       0.40630587       0.23458080       0.00000000 </v>
    <v>       0.00000000       0.46916160       0.00000000 </v>
    <v>       0.00000000       0.00000000       0.14907795 </v>
   </varray>
  </crystal>
  <varray name="positions" >
   <v>       0.00000000       0.00000000       0.00000000 </v>
   <v>       0.33333333       0.66666667       0.00000000 </v>
   <v>       0.33333333       0.66666667       0.50000000 </v>
   <v>       0.66666667       0.33333333       0.50000000 </v>
  </varray>
 </structure>
 <calculation>
  <scstep>
   <time name="dav">    0.80    1.07</time>
   <time name="total">    1.04    1.55</time>
   <energy>
    <i name="alphaZ">     37.04766603 </i>
    <i name="ewald">   -460.60042082 </i>
    <i name="hartreedc">   -187.82453678 </i>
    <i name="XCdc">     58.03328339 </i>
    <i name="pawpsdc">    263.80252463 </i>
    <i name="pawaedc">   -269.14148641 </i>
    <i name="eentropy">      0.00003624 </i>
    <i name="bandstr">    -64.62160141 </i>
    <i name="atom">    588.61103066 </i>
    <i name="e_fr_energy">    -34.69350447 </i>
    <i name="e_wo_entrp">    -34.69354070 </i>
    <i name="e_0_energy">    -34.69351655 </i>
   </energy>
  </scstep>
  <scstep>
   <time name="dav">    0.75    1.19</time>
   <time name="total">    1.00    1.87</time>
   <energy>
    <i name="e_fr_energy">    -36.29264609 </i>
    <i name="e_wo_entrp">    -36.29268233 </i>
    <i name="e_0_energy">    -36.29265817 </i>
   </energy>
  </scstep>
  <scstep>
   <time name="dav">    0.73    0.84</time>
   <time name="total">    0.98    1.28</time>
   <energy>
    <i name="e_fr_energy">    -36.81773733 </i>
    <i name="e_wo_entrp">    -36.81777502 </i>
    <i name="e_0_energy">    -36.81774989 </i>
   </energy>
  </scstep>
  <scstep>
   <time name="dav">    0.68    1.14</time>
   <time name="total">    0.95    1.86</time>
   <energy>
    <i name="e_fr_energy">    -36.83505936 </i>
    <i name="e_wo_entrp">    -36.83509560 </i>
    <i name="e_0_energy">    -36.83507144 </i>
   </energy>
  </scstep>
  <scstep>
   <time name="dav">    0.65    0.88</time>
   <time name="total">    0.90    1.23</time>
   <energy>
    <i name="e_fr_energy">    -36.83565244 </i>
    <i name="e_wo_entrp">    -36.83568867 </i>
    <i name="e_0_energy">    -36.83566452 </i>
   </energy>
  </scstep>
  <scstep>
   <time name="dav">    0.48    0.75</time>
   <time name="total">    0.64    0.94</time>
   <energy>
    <i name="alphaZ">     37.04766603 </i>
    <i name="ewald">   -460.60042082 </i>
    <i name="hartreedc">   -183.75737313 </i>
    <i name="XCdc">     57.70745746 </i>
    <i name="pawpsdc">    279.31199214 </i>
    <i name="pawaedc">   -284.47365882 </i>
    <i name="eentropy">      0.00003624 </i>
    <i name="bandstr">    -70.68240406 </i>
    <i name="atom">    588.61103066 </i>
    <i name="e_fr_energy">    -36.83567430 </i>
    <i name="e_wo_entrp">    -36.83571054 </i>
    <i name="e_0_energy">    -36.83568638 </i>
   </energy>
  </scstep>
  <parameters_embedded>
   <separator name="dft+d2" >
    <i type="logical" name="LVDW"> F  </i>
   </separator>
  </parameters_embedded>
  <structure>
   <crystal>
    <varray name="basis" >
     <v>       2.46120000       0.00000000       0.00000000 </v>
     <v>      -1.23060000       2.13146172       0.00000000 </v>
     <v>       0.00000000       0.00000000       6.70790000 </v>
    </varray>
    <i name="volume">     35.18933212 </i>
    <varray name="rec_basis" >
     <v>       0.40630587       0.23458080       0.00000000 </v>
     <v>       0.00000000       0.46916160       0.00000000 </v>
     <v>       0.00000000       0.00000000       0.14907795 </v>
    </varray>
   </crystal>
   <varray name="positions" >
    <v>       0.00000000       0.00000000       0.00000000 </v>
    <v>       0.33333333       0.66666667       0.00000000 </v>
    <v>       0.33333333       0.66666667       0.50000000 </v>
    <v>       0.66666667       0.33333333       0.50000000 </v>
   </varray>
  </structure>
  <varray name="forces" >
   <v>       0.00000000       0.00000000       0.00000000 </v>
   <v>       0.00000000       0.00000000       0.00000000 </v>
   <v>       0.00000000       0.00000000       0.00000000 </v>
   <v>       0.00000000       0.00000000       0.00000000 </v>
  </varray>
  <varray name="stress" >
   <v>      27.86608562       0.00000000       0.00000000 </v>
   <v>       0.00000000      27.86608562       0.00000000 </v>
   <v>       0.00000000       0.00000000      29.61785517 </v>
  </varray>
  <energy>
   <i name="e_fr_energy">    -36.83567430 </i>
   <i name="e_wo_entrp">    -36.83568638 </i>
   <i name="e_0_energy">      0.00003624 </i>
  </energy>
  <time name="totalsc">    6.45   10.92</time>
  <eigenvalues>
   <array>
    <dimension dim="1">band</dimension>
    <dimension dim="2">kpoint</dimension>
    <dimension dim="3">spin</dimension>
    <field>eigene</field>
    <field>occ</field>
    <set>
     <set comment="spin 1">
      <set comment="kpoint 1">
       <r>  -13.8432    1.0000 </r>
       <r>  -13.5848    1.0000 </r>
       <r>   -2.4195    1.0000 </r>
       <r>   -1.4979    1.0000 </r>
       <r>   -1.4578    1.0000 </r>
       <r>   -0.6985    1.0000 </r>
       <r>   -0.4153    1.0000 </r>
       <r>   -0.3871    1.0000 </r>
      </set>
      <set comment="kpoint 2">
       <r>  -10.2873    1.0000 </r>
       <r>  -10.0931    1.0000 </r>
       <r>   -7.3613    1.0000 </r>
       <r>   -7.2142    1.0000 </r>
       <r>   -2.7323    1.0000 </r>
       <r>   -2.6580    1.0000 </r>
       <r>    1.5892    1.0000 </r>
       <r>    2.6953    1.0000 </r>
      </set>
      <set comment="kpoint 3">
       <r>  -12.3830    1.0000 </r>
       <r>  -12.1488    1.0000 </r>
       <r>   -4.3272    1.0000 </r>
       <r>   -4.2255    1.0000 </r>
       <r>   -1.9566    1.0000 </r>
       <r>   -1.8944    1.0000 </r>
       <r>   -0.6915    1.0000 </r>
       <r>    0.8794    1.0000 </r>
      </set>
      <set comment="kpoint 4">
       <r>  -14.5846    1.0000 </r>
       <r>  -14.3139    1.0000 </r>
       <r>   -3.3130    1.0000 </r>
       <r>   -1.5320    1.0000 </r>
       <r>    0.3085    1.0000 </r>
       <r>    0.3527    1.0000 </r>
       <r>    0.9943    1.0000 </r>
       <r>    1.0264    1.0000 </r>
      </set>
      <set comment="kpoint 5">
       <r>   -8.6532    1.0000 </r>
       <r>   -8.5590    1.0000 </r>
       <r>   -7.7433    1.0000 </r>
       <r>   -7.7024    1.0000 </r>
       <r>   -5.0639    1.0000 </r>
       <r>   -4.9693    1.0000 </r>
       <r>    3.3110    1.0000 </r>
       <r>    3.9158    1.0000 </r>
      </set>
      <set comment="kpoint 6">
       <r>  -11.6660    1.0000 </r>
       <r>  -11.4440    1.0000 </r>
       <r>   -6.0454    1.0000 </r>
       <r>   -5.9076    1.0000 </r>
       <r>   -1.3401    1.0000 </r>
       <r>   -1.2904    1.0000 </r>
       <r>    0.1059    1.0000 </r>
       <r>    1.5464    1.0000 </r>
      </set>
      <set comment="kpoint 7">
       <r>  -13.7705    1.0000 </r>
       <r>  -13.6635    1.0000 </r>
       <r>   -1.9727    1.0000 </r>
       <r>   -1.4866    1.0000 </r>
       <r>   -1.4688    1.0000 </r>
       <r>   -1.2681    1.0000 </r>
       <r>   -0.4077    1.0000 </r>
       <r>   -0.3960    1.0000 </r>
      </set>
      <set comment="kpoint 8">
       <r>  -10.2320    1.0000 </r>
       <r>  -10.1516    1.0000 </r>
       <r>   -7.3195    1.0000 </r>
       <r>   -7.2586    1.0000 </r>
       <r>   -2.7110    1.0000 </r>
       <r>   -2.6802    1.0000 </r>
       <r>    1.9076    1.0000 </r>
       <r>    2.3687    1.0000 </r>
      </set>
      <set comment="kpoint 9">
       <r>  -12.3168    1.0000 </r>
       <r>  -12.2199    1.0000 </r>
       <r>   -4.2978    1.0000 </r>
       <r>   -4.2557    1.0000 </r>
       <r>   -1.9389    1.0000 </r>
       <r>   -1.9131    1.0000 </r>
       <r>   -0.2784    1.0000 </r>
       <r>    0.3654    1.0000 </r>
      </set>
      <set comment="kpoint 10">
       <r>  -14.5086    1.0000 </r>
       <r>  -14.3966    1.0000 </r>
       <r>   -2.8520    1.0000 </r>
       <r>   -2.1247    1.0000 </r>
       <r>    0.3215    1.0000 </r>
       <r>    0.3397    1.0000 </r>
       <r>    1.0036    1.0000 </r>
       <r>    1.0168    1.0000 </r>
      </set>
      <set comment="kpoint 11">
       <r>   -8.6223    1.0000 </r>
       <r>   -8.5829    1.0000 </r>
       <r>   -7.7369    1.0000 </r>
       <r>   -7.7195    1.0000 </r>
       <r>   -5.0376    1.0000 </r>
       <r>   -4.9983    1.0000 </r>
       <r>    3.5434    1.0000 </r>
       <r>    3.8072    1.0000 </r>
      </set>
      <set comment="kpoint 12">
       <r>  -11.6032    1.0000 </r>
       <r>  -11.5113    1.0000 </r>
       <r>   -6.0059    1.0000 </r>
       <r>   -5.9488    1.0000 </r>
       <r>   -1.3257    1.0000 </r>
       <r>   -1.3052    1.0000 </r>
       <r>    0.4918    1.0000 </r>
       <r>    1.0842    1.0000 </r>
      </set>
     </set>
    </set>
   </array>
  </eigenvalues>
  <separator name="orbital magnetization" >
   <v name="MAGDIPOLOUT">      0.00000000      0.00000000      0.00000000</v>
  </separator>
  <dos>
   <i name="efermi">      3.92420118 </i>
   <total>
    <array>
     <dimension dim="1">gridpoints</dimension>
     <dimension dim="2">spin</dimension>
     <field>energy</field>
     <field>total</field>
     <field>integrated</field>
     <set>
      <set comment="spin 1">
       <r>   -15.5096     0.0000     0.0000 </r>
       <r>   -15.4418     0.0000     0.0000 </r>
       <r>   -15.3740     0.0000     0.0000 </r>
       <r>   -15.3061     0.0000     0.0000 </r>
       <r>   -15.2383     0.0000     0.0000 </r>
       <r>   -15.1705     0.0000     0.0000 </r>
       <r>   -15.1026     0.0000     0.0000 </r>
       <r>   -15.0348     0.0000     0.0000 </r>
       <r>   -14.9670     0.0000     0.0000 </r>
       <r>   -14.8991     0.0000     0.0000 </r>
       <r>   -14.8313     0.0000     0.0000 </r>
       <r>   -14.7635     0.0000     0.0000 </r>
       <r>   -14.6956     0.0000     0.0000 </r>
       <r>   -14.6278     0.0000     0.0000 </r>
       <r>   -14.5600     1.8452     0.1252 </r>
       <r>   -14.4921     1.8812     0.2526 </r>
       <r>   -14.4243    -0.0006     0.2500 </r>
       <r>   -14.3564     1.8433     0.3750 </r>
       <r>   -14.2886     1.8446     0.5001 </r>
       <r>   -14.2208     0.0000     0.5000 </r>
       <r>   -14.1529     0.0000     0.5000 </r>
       <r>   -14.0851     0.0000     0.5000 </r>
       <r>   -14.0173     0.0000     0.5000 </r>
       <r>   -13.9494     0.0000     0.5000 </r>
       <r>   -13.8816     0.0000     0.5000 </r>
       <r>   -13.8138     1.8429     0.6250 </r>
       <r>   -13.7459     1.8453     0.7502 </r>
       <r>   -13.6781    -0.0545     0.7463 </r>
       <r>   -13.6103     1.8955     0.8749 </r>
       <r>   -13.5424     1.8444     1.0000 </r>
       <r>   -13.4746     0.0000     1.0000 </r>
       <r>   -13.4068     0.0000     1.0000 </r>
       <r>   -13.3389     0.0000     1.0000 </r>
       <r>   -13.2711     0.0000     1.0000 </r>
       <r>   -13.2033     0.0000     1.0000 </r>
       <r>   -13.1354     0.0000     1.0000 </r>
       <r>   -13.0676     0.0000     1.0000 </r>
       <r>   -12.9998     0.0000     1.0000 </r>
       <r>   -12.9319     0.0000     1.0000 </r>
       <r>   -12.8641     0.0000     1.0000 </r>
       <r>   -12.7962     0.0000     1.0000 </r>
       <r>   -12.7284     0.0000     1.0000 </r>
       <r>   -12.6606     0.0000     1.0000 </r>
       <r>   -12.5927     0.0000     1.0000 </r>
       <r>   -12.5249     0.0000     1.0000 </r>
       <r>   -12.4571     0.0000     1.0000 </r>
       <r>   -12.3892     0.2539     1.0172 </r>
       <r>   -12.3214     3.9899     1.2879 </r>
       <r>   -12.2536     3.1271     1.5000 </r>
       <r>   -12.1857     3.6855     1.7500 </r>
       <r>   -12.1179     3.6856     2.0000 </r>
       <r>   -12.0501     0.0000     2.0000 </r>
       <r>   -11.9822     0.0000     2.0000 </r>
       <r>   -11.9144     0.0000     2.0000 </r>
       <r>   -11.8466     0.0000     2.0000 </r>
       <r>   -11.7787     0.0000     2.0000 </r>
       <r>   -11.7109     0.0000     2.0000 </r>
       <r>   -11.6431     1.8477     2.1253 </r>
       <r>   -11.5752     1.8432     2.2500 </r>
       <r>   -11.5074     1.4813     2.3505 </r>
       <r>   -11.4396     1.9088     2.4800 </r>
       <r>   -11.3717     0.2952     2.5000 </r>
       <r>   -11.3039     0.0000     2.5000 </r>
       <r>   -11.2360     0.0000     2.5000 </r>
       <r>   -11.1682     0.0000     2.5000 </r>
       <r>   -11.1004     0.0000     2.5000 </r>
       <r>   -11.0325     0.0000     2.5000 </r>
       <r>   -10.9647     0.0000     2.5000 </r>
       <r>   -10.8969     0.0000     2.5000 </r>
       <r>   -10.8290     0.0000     2.5000 </r>
       <r>   -10.7612     0.0000     2.5000 </r>
       <r>   -10.6934     0.0000     2.5000 </r>
       <r>   -10.6255     0.0000     2.5000 </r>
       <r>   -10.5577     0.0000     2.5000 </r>
       <r>   -10.4899     0.0000     2.5000 </r>
       <r>   -10.4220     0.0000     2.5000 </r>
       <r>   -10.3542     0.0000     2.5000 </r>
       <r>   -10.2864     2.1406     2.6452 </r>
       <r>   -10.2185     5.3538     3.0084 </r>
       <r>   -10.1507     2.1238     3.1441 </r>
       <r>   -10.0829     5.3490     3.5069 </r>
       <r>   -10.0150    -0.1020     3.5000 </r>
       <r>    -9.9472     0.0000     3.5000 </r>
       <r>    -9.8793     0.0000     3.5000 </r>
       <r>    -9.8115     0.0000     3.5000 </r>
       <r>    -9.7437     0.0000     3.5000 </r>
       <r>    -9.6758     0.0000     3.5000 </r>
       <r>    -9.6080     0.0000     3.5000 </r>
       <r>    -9.5402     0.0000     3.5000 </r>
       <r>    -9.4723     0.0000     3.5000 </r>
       <r>    -9.4045     0.0000     3.5000 </r>
       <r>    -9.3367     0.0000     3.5000 </r>
       <r>    -9.2688     0.0000     3.5000 </r>
       <r>    -9.2010     0.0000     3.5000 </r>
       <r>    -9.1332     0.0000     3.5000 </r>
       <r>    -9.0653     0.0000     3.5000 </r>
       <r>    -8.9975     0.0000     3.5000 </r>
       <r>    -8.9297     0.0000     3.5000 </r>
       <r>    -8.8618     0.0000     3.5000 </r>
       <r>    -8.7940     0.0000     3.5000 </r>
       <r>    -8.7262     0.0000     3.5000 </r>
       <r>    -8.6583     0.2281     3.5155 </r>
       <r>    -8.5905     3.4963     3.7526 </r>
       <r>    -8.5227     3.6464     4.0000 </r>
       <r>    -8.4548     0.0000     4.0000 </r>
       <r>    -8.3870     0.0000     4.0000 </r>
       <r>    -8.3191     0.0000     4.0000 </r>
       <r>    -8.2513     0.0000     4.0000 </r>
       <r>    -8.1835     0.0000     4.0000 </r>
       <r>    -8.1156     0.0000     4.0000 </r>
       <r>    -8.0478     0.0000     4.0000 </r>
       <r>    -7.9800     0.0000     4.0000 </r>
       <r>    -7.9121     0.0000     4.0000 </r>
       <r>    -7.8443     0.0000     4.0000 </r>
       <r>    -7.7765     0.0000     4.0000 </r>
       <r>    -7.7086     5.7140     4.3876 </r>
       <r>    -7.6408     1.6574     4.5000 </r>
       <r>    -7.5730     0.0000     4.5000 </r>
       <r>    -7.5051     0.0000     4.5000 </r>
       <r>    -7.4373     0.0000     4.5000 </r>
       <r>    -7.3695     0.0190     4.5013 </r>
       <r>    -7.3016     7.4068     5.0037 </r>
       <r>    -7.2338     3.6562     5.2480 </r>
       <r>    -7.1660     3.7192     5.5000 </r>
       <r>    -7.0981     0.0000     5.5000 </r>
       <r>    -7.0303     0.0000     5.5000 </r>
       <r>    -6.9625     0.0000     5.5000 </r>
       <r>    -6.8946     0.0000     5.5000 </r>
       <r>    -6.8268     0.0000     5.5000 </r>
       <r>    -6.7589     0.0000     5.5000 </r>
       <r>    -6.6911     0.0000     5.5000 </r>
       <r>    -6.6233     0.0000     5.5000 </r>
       <r>    -6.5554     0.0000     5.5000 </r>
       <r>    -6.4876     0.0000     5.5000 </r>
       <r>    -6.4198     0.0000     5.5000 </r>
       <r>    -6.3519     0.0000     5.5000 </r>
       <r>    -6.2841     0.0000     5.5000 </r>
       <r>    -6.2163     0.0000     5.5000 </r>
       <r>    -6.1484     0.0000     5.5000 </r>
       <r>    -6.0806     0.0000     5.5000 </r>
       <r>    -6.0128     1.9278     5.6308 </r>
       <r>    -5.9449     3.2400     5.8506 </r>
       <r>    -5.8771     2.2032     6.0000 </r>
       <r>    -5.8093     0.0000     6.0000 </r>
       <r>    -5.7414     0.0000     6.0000 </r>
       <r>    -5.6736     0.0000     6.0000 </r>
       <r>    -5.6058     0.0000     6.0000 </r>
       <r>    -5.5379     0.0000     6.0000 </r>
       <r>    -5.4701     0.0000     6.0000 </r>
       <r>    -5.4023     0.0000     6.0000 </r>
       <r>    -5.3344     0.0000     6.0000 </r>
       <r>    -5.2666     0.0000     6.0000 </r>
       <r>    -5.1987     0.0000     6.0000 </r>
       <r>    -5.1309     0.0000     6.0000 </r>
       <r>    -5.0631     1.0454     6.0709 </r>
       <r>    -4.9952     4.0186     6.3435 </r>
       <r>    -4.9274     2.3068     6.5000 </r>
       <r>    -4.8596     0.0000     6.5000 </r>
       <r>    -4.7917     0.0000     6.5000 </r>
       <r>    -4.7239     0.0000     6.5000 </r>
       <r>    -4.6561     0.0000     6.5000 </r>
       <r>    -4.5882     0.0000     6.5000 </r>
       <r>    -4.5204     0.0000     6.5000 </r>
       <r>    -4.4526     0.0000     6.5000 </r>
       <r>    -4.3847     0.0000     6.5000 </r>
       <r>    -4.3169     3.7502     6.7544 </r>
       <r>    -4.2491     7.1078     7.2366 </r>
       <r>    -4.1812     3.8837     7.5000 </r>
       <r>    -4.1134     0.0000     7.5000 </r>
       <r>    -4.0456     0.0000     7.5000 </r>
       <r>    -3.9777     0.0000     7.5000 </r>
       <r>    -3.9099     0.0000     7.5000 </r>
       <r>    -3.8421     0.0000     7.5000 </r>
       <r>    -3.7742     0.0000     7.5000 </r>
       <r>    -3.7064     0.0000     7.5000 </r>
       <r>    -3.6385     0.0000     7.5000 </r>
       <r>    -3.5707     0.0000     7.5000 </r>
       <r>    -3.5029     0.0000     7.5000 </r>
       <r>    -3.4350     0.0000     7.5000 </r>
       <r>    -3.3672     0.0000     7.5000 </r>
       <r>    -3.2994     1.9038     7.6291 </r>
       <r>    -3.2315     0.0000     7.6250 </r>
       <r>    -3.1637     0.0000     7.6250 </r>
       <r>    -3.0959     0.0000     7.6250 </r>
       <r>    -3.0280     0.0000     7.6250 </r>
       <r>    -2.9602     0.0000     7.6250 </r>
       <r>    -2.8924     0.0000     7.6250 </r>
       <r>    -2.8245     1.8434     7.7500 </r>
       <r>    -2.7567    -0.0057     7.7496 </r>
       <r>    -2.6889     7.3683     8.2494 </r>
       <r>    -2.6210     7.3928     8.7500 </r>
       <r>    -2.5532     0.0000     8.7500 </r>
       <r>    -2.4854     0.0000     8.7500 </r>
       <r>    -2.4175     1.2184     8.8326 </r>
       <r>    -2.3497     0.6243     8.8750 </r>
       <r>    -2.2819     0.0000     8.8750 </r>
       <r>    -2.2140     0.0000     8.8750 </r>
       <r>    -2.1462    -0.0089     8.8744 </r>
       <r>    -2.0783     1.8516     9.0000 </r>
       <r>    -2.0105     0.0000     9.0000 </r>
       <r>    -1.9427     6.3909     9.4335 </r>
       <r>    -1.8748    10.3456    10.1273 </r>
       <r>    -1.8070     0.0000    10.1250 </r>
       <r>    -1.7392     0.0000    10.1250 </r>
       <r>    -1.6713     0.0000    10.1250 </r>
       <r>    -1.6035     0.0000    10.1250 </r>
       <r>    -1.5357     0.3901    10.1515 </r>
       <r>    -1.4678     6.1837    10.5709 </r>
       <r>    -1.4000     2.6613    10.7500 </r>
       <r>    -1.3322     1.9310    10.8810 </r>
       <r>    -1.2643     6.9094    11.3497 </r>
       <r>    -1.1965     0.3745    11.3750 </r>
       <r>    -1.1287     0.0000    11.3750 </r>
       <r>    -1.0608     0.0000    11.3750 </r>
       <r>    -0.9930     0.0000    11.3750 </r>
       <r>    -0.9252     0.0000    11.3750 </r>
       <r>    -0.8573     0.0000    11.3750 </r>
       <r>    -0.7895     0.0000    11.3750 </r>
       <r>    -0.7217    -0.0050    11.3747 </r>
       <r>    -0.6538     5.5332    11.7500 </r>
       <r>    -0.5860     0.0000    11.7500 </r>
       <r>    -0.5181     0.0000    11.7500 </r>
       <r>    -0.4503     0.0000    11.7500 </r>
       <r>    -0.3825     7.1538    12.2353 </r>
       <r>    -0.3146     0.2806    12.2500 </r>
       <r>    -0.2468     3.6856    12.5000 </r>
       <r>    -0.1790     0.0000    12.5000 </r>
       <r>    -0.1111     0.0000    12.5000 </r>
       <r>    -0.0433     0.0000    12.5000 </r>
       <r>     0.0245     0.0000    12.5000 </r>
       <r>     0.0924    -0.0617    12.4958 </r>
       <r>     0.1602     1.9044    12.6250 </r>
       <r>     0.2280     0.0000    12.6250 </r>
       <r>     0.2959    -0.0665    12.6205 </r>
       <r>     0.3637     8.8346    13.2198 </r>
       <r>     0.4315     2.2914    13.3750 </r>
       <r>     0.4994     1.8034    13.4973 </r>
       <r>     0.5672     0.0393    13.5000 </r>
       <r>     0.6350     0.0000    13.5000 </r>
       <r>     0.7029     0.0000    13.5000 </r>
       <r>     0.7707     0.0000    13.5000 </r>
       <r>     0.8385     0.0000    13.5000 </r>
       <r>     0.9064     3.6871    13.7501 </r>
       <r>     0.9742    -0.0147    13.7490 </r>
       <r>     1.0421     7.4325    14.2532 </r>
       <r>     1.1099     1.8443    14.3751 </r>
       <r>     1.1777     0.0000    14.3750 </r>
       <r>     1.2456     0.0000    14.3750 </r>
       <r>     1.3134     0.0000    14.3750 </r>
       <r>     1.3812     0.0000    14.3750 </r>
       <r>     1.4491     0.0000    14.3750 </r>
       <r>     1.5169    -0.0002    14.3750 </r>
       <r>     1.5847     2.4421    14.5406 </r>
       <r>     1.6526     3.0862    14.7500 </r>
       <r>     1.7204     0.0000    14.7500 </r>
       <r>     1.7882     0.0000    14.7500 </r>
       <r>     1.8561     0.0000    14.7500 </r>
       <r>     1.9239     3.7656    15.0054 </r>
       <r>     1.9917     0.0000    15.0000 </r>
       <r>     2.0596     0.0000    15.0000 </r>
       <r>     2.1274     0.0000    15.0000 </r>
       <r>     2.1952     0.0000    15.0000 </r>
       <r>     2.2631     0.0000    15.0000 </r>
       <r>     2.3309     0.0000    15.0000 </r>
       <r>     2.3987     3.6858    15.2500 </r>
       <r>     2.4666     0.0000    15.2500 </r>
       <r>     2.5344     0.0000    15.2500 </r>
       <r>     2.6023     0.0000    15.2500 </r>
       <r>     2.6701    -0.0040    15.2497 </r>
       <r>     2.7379     3.6894    15.5000 </r>
       <r>     2.8058     0.0000    15.5000 </r>
       <r>     2.8736     0.0000    15.5000 </r>
       <r>     2.9414     0.0000    15.5000 </r>
       <r>     3.0093     0.0000    15.5000 </r>
       <r>     3.0771     0.0000    15.5000 </r>
       <r>     3.1449     0.0000    15.5000 </r>
       <r>     3.2128     0.0000    15.5000 </r>
       <r>     3.2806    -0.0001    15.5000 </r>
       <r>     3.3484     1.8429    15.6250 </r>
       <r>     3.4163     0.0000    15.6250 </r>
       <r>     3.4841     0.0000    15.6250 </r>
       <r>     3.5519     1.8490    15.7504 </r>
       <r>     3.6198    -0.0063    15.7500 </r>
       <r>     3.6876     0.0000    15.7500 </r>
       <r>     3.7554     0.0000    15.7500 </r>
       <r>     3.8233     1.8845    15.8778 </r>
       <r>     3.8911    -0.0025    15.8748 </r>
       <r>     3.9589     1.8452    16.0000 </r>
       <r>     4.0268     0.0000    16.0000 </r>
       <r>     4.0946     0.0000    16.0000 </r>
       <r>     4.1625     0.0000    16.0000 </r>
       <r>     4.2303     0.0000    16.0000 </r>
       <r>     4.2981     0.0000    16.0000 </r>
       <r>     4.3660     0.0000    16.0000 </r>
       <r>     4.4338     0.0000    16.0000 </r>
       <r>     4.5016     0.0000    16.0000 </r>
       <r>     4.5695     0.0000    16.0000 </r>
       <r>     4.6373     0.0000    16.0000 </r>
       <r>     4.7051     0.0000    16.0000 </r>
       <r>     4.7730     0.0000    16.0000 </r>
       <r>     4.8408     0.0000    16.0000 </r>
      </set>
     </set>
    </array>
   </total>
  </dos>
 </calculation>
 <structure name="finalpos" >
  <crystal>
   <varray name="basis" >
    <v>       2.46120000       0.00000000       0.00000000 </v>
    <v>      -1.23060000       2.13146172       0.00000000 </v>
    <v>       0.00000000       0.00000000       6.70790000 </v>
   </varray>
   <i name="volume">     35.18933212 </i>
   <varray name="rec_basis" >
    <v>       0.40630587       0.23458080       0.00000000 </v>
    <v>       0.00000000       0.46916160       0.00000000 </v>
    <v>       0.00000000       0.00000000       0.14907795 </v>
   </varray>
  </crystal>
  <varray name="positions" >
   <v>       0.00000000       0.00000000       0.00000000 </v>
   <v>       0.33333333       0.66666667       0.00000000 </v>
   <v>       0.33333333       0.66666667       0.50000000 </v>
   <v>       0.66666667       0.33333333       0.50000000 </v>
  </varray>
 </structure>
</modeling>
