unknown system                          
   1.00000000000000     
     1.662000    1.662000   -1.662000
    -1.662000    1.662000    1.662000
     1.662000   -1.662000    1.662000
   Ta
     1
Direct
  0.000000  0.000000  0.000000
 
   40   40   40
  7.8023      7.7035      7.4473      7.1372      6.8969      6.8205      6.9360      7.1960      7.4965      7.7152    
  7.7547      7.5749      7.2022      6.7142      6.2074      5.7634      5.4273      5.2033      5.0667      4.9939    
  4.9714      4.9939      5.0667      5.2033      5.4273      5.7634      6.2074      6.7142      7.2022      7.5749    
  7.7547      7.7152      7.4965      7.1960      6.9360      6.8205      6.8969      7.1372      7.4473      7.7035    
  7.7035      7.6700      7.4650      7.1722      6.9107      6.7857      6.8473      7.0713      7.3698      7.6237    
  7.7256      7.6161      7.3013      6.8449      6.3400      5.8749      5.5067      5.2520      5.0928      5.0023    
  4.9650      4.9723      5.0261      5.1375      5.3253      5.6176      6.0222      6.5094      7.0095      7.4292    
  7.6813      7.7190      7.5581      7.2771      6.9916      6.8150      6.8163      6.9947      7.2783      7.5520    
  7.4473      7.4650      7.3204      7.0722      6.8236      6.6797      6.7035      6.8915      7.1750      7.4452    
  7.5929      7.5467      7.2949      6.8854      6.4031      5.9372      5.5528      5.2769      5.1002      4.9956    
  4.9456      4.9392      4.9746      5.0603      5.2114      5.4534      5.8050      6.2526      6.7435      7.1939    
  7.5139      7.6397      7.5610      7.3297      7.0448      6.8184      6.7352      6.8211      7.0337      7.2783    
  7.1372      7.1722      7.0722      6.8713      6.6517      6.5080      6.5076      6.6620      6.9209      7.1902    
  7.3661      7.3715      7.1816      6.8288      6.3863      5.9395      5.5565      5.2721      5.0851      4.9716    
  4.9126      4.8955      4.9152      4.9770      5.0940      5.2855      5.5764      5.9687      6.4289      6.8894    
  7.2652      7.4824      7.5067      7.3599      7.1153      6.8721      6.7205      6.7077      6.8211      6.9947    
  6.8969      6.9107      6.8236      6.6517      6.4553      6.3140      6.2919      6.4095      6.6324      6.8827    
  7.0667      7.1076      6.9721      6.6789      6.2883      5.8772      5.5126      5.2334      5.0454      4.9291    
  4.8656      4.8418      4.8498      4.8916      4.9783      5.1248      5.3543      5.6817      6.0927      6.5398    
  6.9512      7.2516      7.3895      7.3577      7.1981      6.9874      6.8087      6.7205      6.7352      6.8163    
  6.8205      6.7857      6.6797      6.5080      6.3140      6.1614      6.1074      6.1765      6.3473      6.5578    
  6.7268      6.7827      6.6880      6.4505      6.1169      5.7532      5.4212      5.1602      4.9805      4.8678    
  4.8047      4.7785      4.7795      4.8067      4.8682      4.9777      5.1518      5.4118      5.7604      6.1715    
  6.5919      6.9547      7.2006      7.2996      7.2625      7.1366      6.9874      6.8721      6.8184      6.8150    
  6.9360      6.8473      6.7035      6.5076      6.2919      6.1074      6.0038      6.0069      6.1057      6.2532    
  6.3826      6.4302      6.3583      6.1662      5.8881      5.5776      5.2878      5.0554      4.8925      4.7893    
  4.7312      4.7066      4.7053      4.7235      4.7664      4.8459      4.9756      5.1734      5.4540      5.8107    
  6.2117      6.6055      6.9359      7.1601      7.2632      7.2625      7.1981      7.1153      7.0448      6.9916    
  7.1960      7.0713      6.8915      6.6620      6.4095      6.1765      6.0069      5.9274      5.9359      5.9997    
  6.0665      6.0829      6.0138      5.8530      5.6233      5.3656      5.1226      4.9255      4.7859      4.6969    
  4.6474      4.6276      4.6276      4.6422      4.6734      4.7305      4.8263      4.9733      5.1887      5.4806    
  5.8373      6.2268      6.6044      6.9257      7.1601      7.2996      7.3577      7.3599      7.3297      7.2771    
  7.4965      7.3698      7.1750      6.9209      6.6324      6.3473      6.1057      5.9359      5.8441      5.8109    
  5.7987      5.7658      5.6815      5.5369      5.3453      5.1353      4.9388      4.7795      4.6668      4.5951    
  4.5567      4.5439      4.5477      4.5624      4.5880      4.6306      4.7010      4.8108      4.9715      5.1980    
  5.4943      5.8478      6.2300      6.6044      6.9359      7.2006      7.3895      7.5067      7.5610      7.5581    
  7.7152      7.6237      7.4452      7.1902      6.8827      6.5578      6.2532      5.9997      5.8109      5.6799    
  5.5835      5.4918      5.3804      5.2393      5.0746      4.9045      4.7502      4.6277      4.5423      4.4892    
  4.4631      4.4580      4.4668      4.4840      4.5084      4.5435      4.5971      4.6795      4.8005      4.9704    
  5.2022      5.4984      5.8478      6.2268      6.6055      6.9547      7.2516      7.4824      7.6397      7.7190    
  7.7547      7.7256      7.5929      7.3661      7.0667      6.7268      6.3826      6.0665      5.7987      5.5835    
  5.4106      5.2617      5.1192      4.9740      4.8271      4.6883      4.5696      4.4795      4.4194      4.3842    
  4.3703      4.3730      4.3866      4.4072      4.4330      4.4657      4.5103      4.5744      4.6667      4.7954    
  4.9700      5.2022      5.4943      5.8373      6.2117      6.5919      6.9512      7.2652      7.5139      7.6813    
  7.5749      7.6161      7.5467      7.3715      7.1076      6.7827      6.4302      6.0829      5.7658      5.4918    
  5.2617      5.0674      4.8985      4.7475      4.6126      4.4974      4.4068      4.3432      4.3042      4.2848    
  4.2819      4.2913      4.3092      4.3327      4.3608      4.3943      4.4358      4.4898      4.5630      4.6625    
  4.7954      4.9704      5.1980      5.4806      5.8107      6.1715      6.5398      6.8894      7.1939      7.4292    
  7.2022      7.3013      7.2949      7.1816      6.9721      6.6880      6.3583      6.0138      5.6815      5.3804    
  5.1192      4.8985      4.7139      4.5605      4.4353      4.3379      4.2682      4.2243      4.2012      4.1945    
  4.2005      4.2154      4.2363      4.2621      4.2924      4.3279      4.3698      4.4203      4.4830      4.5630    
  4.6667      4.8005      4.9715      5.1887      5.4540      5.7604      6.0927      6.4289      6.7435      7.0095    
  6.7142      6.8449      6.8854      6.8288      6.6789      6.4505      6.1662      5.8530      5.5369      5.2393    
  4.9740      4.7475      4.5605      4.4107      4.2953      4.2116      4.1566      4.1257      4.1136      4.1158    
  4.1281      4.1467      4.1698      4.1969      4.2288      4.2664      4.3104      4.3613      4.4203      4.4898    
  4.5744      4.6795      4.8108      4.9733      5.1734      5.4118      5.6817      5.9687      6.2526      6.5094    
  6.2074      6.3400      6.4031      6.3863      6.2883      6.1169      5.8881      5.6233      5.3453      5.0746    
  4.8271      4.6126      4.4353      4.2953      4.1904      4.1174      4.0719      4.0485      4.0428      4.0500    
  4.0657      4.0865      4.1108      4.1388      4.1718      4.2111      4.2574      4.3104      4.3698      4.4358    
  4.5103      4.5971      4.7010      4.8263      4.9756      5.1518      5.3543      5.5764      5.8050      6.0222    
  5.7634      5.8749      5.9372      5.9395      5.8772      5.7532      5.5776      5.3656      5.1353      4.9045    
  4.6883      4.4974      4.3379      4.2116      4.1174      4.0523      4.0119      3.9921      3.9888      3.9974    
  4.0139      4.0352      4.0600      4.0886      4.1224      4.1630      4.2111      4.2664      4.3279      4.3943    
  4.4657      4.5435      4.6306      4.7305      4.8459      4.9777      5.1248      5.2855      5.4534      5.6176    
  5.4273      5.5067      5.5528      5.5565      5.5126      5.4212      5.2878      5.1226      4.9388      4.7502    
  4.5696      4.4068      4.2682      4.1566      4.0719      4.0119      3.9739      3.9548      3.9506      3.9577    
  3.9726      3.9928      4.0173      4.0463      4.0808      4.1224      4.1718      4.2288      4.2924      4.3608    
  4.4330      4.5084      4.5880      4.6734      4.7664      4.8682      4.9783      5.0940      5.2114      5.3253    
  5.2033      5.2520      5.2769      5.2721      5.2334      5.1602      5.0554      4.9255      4.7795      4.6277    
  4.4795      4.3432      4.2243      4.1257      4.0485      3.9921      3.9548      3.9339      3.9266      3.9300    
  3.9415      3.9592      3.9825      4.0112      4.0463      4.0886      4.1388      4.1969      4.2621      4.3327    
  4.4072      4.4840      4.5624      4.6422      4.7235      4.8067      4.8916      4.9770      5.0603      5.1375    
  5.0667      5.0928      5.1002      5.0851      5.0454      4.9805      4.8925      4.7859      4.6668      4.5423    
  4.4194      4.3042      4.2012      4.1136      4.0428      3.9888      3.9506      3.9266      3.9147      3.9130    
  3.9198      3.9340      3.9548      3.9825      4.0173      4.0600      4.1108      4.1698      4.2363      4.3092    
  4.3866      4.4668      4.5477      4.6276      4.7053      4.7795      4.8498      4.9152      4.9746      5.0261    
  4.9939      5.0023      4.9956      4.9716      4.9291      4.8678      4.7893      4.6969      4.5951      4.4892    
  4.3842      4.2848      4.1945      4.1158      4.0500      3.9974      3.9577      3.9300      3.9130      3.9058    
  3.9072      3.9167      3.9340      3.9592      3.9928      4.0352      4.0865      4.1467      4.2154      4.2913    
  4.3730      4.4580      4.5439      4.6276      4.7066      4.7785      4.8418      4.8955      4.9392      4.9723    
  4.9714      4.9650      4.9456      4.9126      4.8656      4.8047      4.7312      4.6474      4.5567      4.4631    
  4.3703      4.2819      4.2005      4.1281      4.0657      4.0139      3.9726      3.9415      3.9198      3.9072    
  3.9030      3.9072      3.9198      3.9415      3.9726      4.0139      4.0657      4.1281      4.2005      4.2819    
  4.3703      4.4631      4.5567      4.6474      4.7312      4.8047      4.8656      4.9126      4.9456      4.9650    
  4.9939      4.9723      4.9392      4.8955      4.8418      4.7785      4.7066      4.6276      4.5439      4.4580    
  4.3730      4.2913      4.2154      4.1467      4.0865      4.0352      3.9928      3.9592      3.9340      3.9167    
  3.9072      3.9058      3.9130      3.9300      3.9577      3.9974      4.0500      4.1158      4.1945      4.2848    
  4.3842      4.4892      4.5951      4.6969      4.7893      4.8678      4.9291      4.9716      4.9956      5.0023    
  5.0667      5.0261      4.9746      4.9152      4.8498      4.7795      4.7053      4.6276      4.5477      4.4668    
  4.3866      4.3092      4.2363      4.1698      4.1108      4.0600      4.0173      3.9825      3.9548      3.9340    
  3.9198      3.9130      3.9147      3.9266      3.9506      3.9888      4.0428      4.1136      4.2012      4.3042    
  4.4194      4.5423      4.6668      4.7859      4.8925      4.9805      5.0454      5.0851      5.1002      5.0928    
  5.2033      5.1375      5.0603      4.9770      4.8916      4.8067      4.7235      4.6422      4.5624      4.4840    
  4.4072      4.3327      4.2621      4.1969      4.1388      4.0886      4.0463      4.0112      3.9825      3.9592    
  3.9415      3.9300      3.9266      3.9339      3.9548      3.9921      4.0485      4.1257      4.2243      4.3432    
  4.4795      4.6277      4.7795      4.9255      5.0554      5.1602      5.2334      5.2721      5.2769      5.2520    
  5.4273      5.3253      5.2114      5.0940      4.9783      4.8682      4.7664      4.6734      4.5880      4.5084    
  4.4330      4.3608      4.2924      4.2288      4.1718      4.1224      4.0808      4.0463      4.0173      3.9928    
  3.9726      3.9577      3.9506      3.9548      3.9739      4.0119      4.0719      4.1566      4.2682      4.4068    
  4.5696      4.7502      4.9388      5.1226      5.2878      5.4212      5.5126      5.5565      5.5528      5.5067    
  5.7634      5.6176      5.4534      5.2855      5.1248      4.9777      4.8459      4.7305      4.6306      4.5435    
  4.4657      4.3943      4.3279      4.2664      4.2111      4.1630      4.1224      4.0886      4.0600      4.0352    
  4.0139      3.9974      3.9888      3.9921      4.0119      4.0523      4.1174      4.2116      4.3379      4.4974    
  4.6883      4.9045      5.1353      5.3656      5.5776      5.7532      5.8772      5.9395      5.9372      5.8749    
  6.2074      6.0222      5.8050      5.5764      5.3543      5.1518      4.9756      4.8263      4.7010      4.5971    
  4.5103      4.4358      4.3698      4.3104      4.2574      4.2111      4.1718      4.1388      4.1108      4.0865    
  4.0657      4.0500      4.0428      4.0485      4.0719      4.1174      4.1904      4.2953      4.4353      4.6126    
  4.8271      5.0746      5.3453      5.6233      5.8881      6.1169      6.2883      6.3863      6.4031      6.3400    
  6.7142      6.5094      6.2526      5.9687      5.6817      5.4118      5.1734      4.9733      4.8108      4.6795    
  4.5744      4.4898      4.4203      4.3613      4.3104      4.2664      4.2288      4.1969      4.1698      4.1467    
  4.1281      4.1158      4.1136      4.1257      4.1566      4.2116      4.2953      4.4107      4.5605      4.7475    
  4.9740      5.2393      5.5369      5.8530      6.1662      6.4505      6.6789      6.8288      6.8854      6.8449    
  7.2022      7.0095      6.7435      6.4289      6.0927      5.7604      5.4540      5.1887      4.9715      4.8005    
  4.6667      4.5630      4.4830      4.4203      4.3698      4.3279      4.2924      4.2621      4.2363      4.2154    
  4.2005      4.1945      4.2012      4.2243      4.2682      4.3379      4.4353      4.5605      4.7139      4.8985    
  5.1192      5.3804      5.6815      6.0138      6.3583      6.6880      6.9721      7.1816      7.2949      7.3013    
  7.5749      7.4292      7.1939      6.8894      6.5398      6.1715      5.8107      5.4806      5.1980      4.9704    
  4.7954      4.6625      4.5630      4.4898      4.4358      4.3943      4.3608      4.3327      4.3092      4.2913    
  4.2819      4.2848      4.3042      4.3432      4.4068      4.4974      4.6126      4.7475      4.8985      5.0674    
  5.2617      5.4918      5.7658      6.0829      6.4302      6.7827      7.1076      7.3715      7.5467      7.6161    
  7.7547      7.6813      7.5139      7.2652      6.9512      6.5919      6.2117      5.8373      5.4943      5.2022    
  4.9700      4.7954      4.6667      4.5744      4.5103      4.4657      4.4330      4.4072      4.3866      4.3730    
  4.3703      4.3842      4.4194      4.4795      4.5696      4.6883      4.8271      4.9740      5.1192      5.2617    
  5.4106      5.5835      5.7987      6.0665      6.3826      6.7268      7.0667      7.3661      7.5929      7.7256    
  7.7152      7.7190      7.6397      7.4824      7.2516      6.9547      6.6055      6.2268      5.8478      5.4984    
  5.2022      4.9704      4.8005      4.6795      4.5971      4.5435      4.5084      4.4840      4.4668      4.4580    
  4.4631      4.4892      4.5423      4.6277      4.7502      4.9045      5.0746      5.2393      5.3804      5.4918    
  5.5835      5.6799      5.8109      5.9997      6.2532      6.5578      6.8827      7.1902      7.4452      7.6237    
  7.4965      7.5581      7.5610      7.5067      7.3895      7.2006      6.9359      6.6044      6.2300      5.8478    
  5.4943      5.1980      4.9715      4.8108      4.7010      4.6306      4.5880      4.5624      4.5477      4.5439    
  4.5567      4.5951      4.6668      4.7795      4.9388      5.1353      5.3453      5.5369      5.6815      5.7658    
  5.7987      5.8109      5.8441      5.9359      6.1057      6.3473      6.6324      6.9209      7.1750      7.3698    
  7.1960      7.2771      7.3297      7.3599      7.3577      7.2996      7.1601      6.9257      6.6044      6.2268    
  5.8373      5.4806      5.1887      4.9733      4.8263      4.7305      4.6734      4.6422      4.6276      4.6276    
  4.6474      4.6969      4.7859      4.9255      5.1226      5.3656      5.6233      5.8530      6.0138      6.0829    
  6.0665      5.9997      5.9359      5.9274      6.0069      6.1765      6.4095      6.6620      6.8915      7.0713    
  6.9360      6.9916      7.0448      7.1153      7.1981      7.2625      7.2632      7.1601      6.9359      6.6055    
  6.2117      5.8107      5.4540      5.1734      4.9756      4.8459      4.7664      4.7235      4.7053      4.7066    
  4.7312      4.7893      4.8925      5.0554      5.2878      5.5776      5.8881      6.1662      6.3583      6.4302    
  6.3826      6.2532      6.1057      6.0069      6.0038      6.1074      6.2919      6.5076      6.7035      6.8473    
  6.8205      6.8150      6.8184      6.8721      6.9874      7.1366      7.2625      7.2996      7.2006      6.9547    
  6.5919      6.1715      5.7604      5.4118      5.1518      4.9777      4.8682      4.8067      4.7795      4.7785    
  4.8047      4.8678      4.9805      5.1602      5.4212      5.7532      6.1169      6.4505      6.6880      6.7827    
  6.7268      6.5578      6.3473      6.1765      6.1074      6.1614      6.3140      6.5080      6.6797      6.7857    
  6.8969      6.8163      6.7352      6.7205      6.8087      6.9874      7.1981      7.3577      7.3895      7.2516    
  6.9512      6.5398      6.0927      5.6817      5.3543      5.1248      4.9783      4.8916      4.8498      4.8418    
  4.8656      4.9291      5.0454      5.2334      5.5126      5.8772      6.2883      6.6789      6.9721      7.1076    
  7.0667      6.8827      6.6324      6.4095      6.2919      6.3140      6.4553      6.6517      6.8236      6.9107    
  7.1372      6.9947      6.8211      6.7077      6.7205      6.8721      7.1153      7.3599      7.5067      7.4824    
  7.2652      6.8894      6.4289      5.9687      5.5764      5.2855      5.0940      4.9770      4.9152      4.8955    
  4.9126      4.9716      5.0851      5.2721      5.5565      5.9395      6.3863      6.8288      7.1816      7.3715    
  7.3661      7.1902      6.9209      6.6620      6.5076      6.5080      6.6517      6.8713      7.0722      7.1722    
  7.4473      7.2783      7.0337      6.8211      6.7352      6.8184      7.0448      7.3297      7.5610      7.6397    
  7.5139      7.1939      6.7435      6.2526      5.8050      5.4534      5.2114      5.0603      4.9746      4.9392    
  4.9456      4.9956      5.1002      5.2769      5.5528      5.9372      6.4031      6.8854      7.2949      7.5467    
  7.5929      7.4452      7.1750      6.8915      6.7035      6.6797      6.8236      7.0722      7.3204      7.4650    
  7.7035      7.5520      7.2783      6.9947      6.8163      6.8150      6.9916      7.2771      7.5581      7.7190    
  7.6813      7.4292      7.0095      6.5094      6.0222      5.6176      5.3253      5.1375      5.0261      4.9723    
  4.9650      5.0023      5.0928      5.2520      5.5067      5.8749      6.3400      6.8449      7.3013      7.6161    
  7.7256      7.6237      7.3698      7.0713      6.8473      6.7857      6.9107      7.1722      7.4650      7.6700    
  7.7035      7.6700      7.4650      7.1722      6.9107      6.7857      6.8473      7.0713      7.3698      7.6237    
  7.7256      7.6161      7.3013      6.8449      6.3400      5.8749      5.5067      5.2520      5.0928      5.0023    
  4.9650      4.9723      5.0261      5.1375      5.3253      5.6176      6.0222      6.5094      7.0095      7.4292    
  7.6813      7.7190      7.5581      7.2771      6.9916      6.8150      6.8163      6.9947      7.2783      7.5520    
  7.6700      7.7035      7.5520      7.2783      6.9947      6.8163      6.8150      6.9916      7.2771      7.5581    
  7.7190      7.6813      7.4292      7.0095      6.5094      6.0222      5.6176      5.3253      5.1375      5.0261    
  4.9723      4.9650      5.0023      5.0928      5.2520      5.5067      5.8749      6.3400      6.8449      7.3013    
  7.6161      7.7256      7.6237      7.3698      7.0713      6.8473      6.7857      6.9107      7.1722      7.4650    
  7.4650      7.5520      7.4650      7.2408      6.9741      6.7773      6.7344      6.8674      7.1280      7.4162    
  7.6169      7.6404      7.4527      7.0829      6.6075      6.1191      5.6947      5.3756      5.1639      5.0349    
  4.9664      4.9454      4.9664      5.0349      5.1639      5.3756      5.6947      6.1191      6.6075      7.0829    
  7.4527      7.6404      7.6169      7.4162      7.1280      6.8674      6.7344      6.7773      6.9741      7.2408    
  7.1722      7.2783      7.2408      7.0722      6.8436      6.6549      6.5917      6.6900      6.9210      7.2013    
  7.4235      7.4945      7.3675      7.0553      6.6211      6.1517      5.7265      5.3945      5.1672      5.0257    
  4.9460      4.9137      4.9205      4.9683      5.0680      5.2365      5.5000      5.8693      6.3211      6.7948    
  7.2057      7.4711      7.5417      7.4237      7.1804      6.9123      6.7214      6.6741      6.7767      6.9741    
  6.9107      6.9947      6.9741      6.8436      6.6517      6.4796      6.4064      6.4747      6.6711      6.9295    
  7.1548      7.2565      7.1810      6.9277      6.5458      6.1126      5.7050      5.3757      5.1436      4.9961    
  4.9099      4.8702      4.8662      4.8965      4.9694      5.0991      5.3067      5.6128      6.0114      6.4617    
  6.8937      7.2270      7.3988      7.3890      7.2304      6.9989      6.7869      6.6688      6.6741      6.7773    
  6.7857      6.8163      6.7773      6.6549      6.4796      6.3140      6.2261      6.2592      6.4108      6.6308    
  6.8383      6.9507      6.9121      6.7125      6.3875      6.0026      5.6280      5.3165      5.0909      4.9449    
  4.8577      4.8148      4.8043      4.8218      4.8725      4.9689      5.1267      5.3685      5.7030      6.1100    
  6.5389      6.9200      7.1866      7.2984      7.2582      7.1119      6.9312      6.7869      6.7214      6.7344    
  6.8473      6.8150      6.7344      6.5917      6.4064      6.2261      6.1074      6.0908      6.1812      6.3428    
  6.5097      6.6095      6.5889      6.4316      6.1612      5.8304      5.4999      5.2183      5.0100      4.8729    
  4.7900      4.7482      4.7356      4.7454      4.7798      4.8489      4.9665      5.1497      5.4167      5.7652    
  6.1661      6.5669      6.9065      7.1346      7.2299      7.2074      7.1119      6.9989      6.9123      6.8674    
  7.0713      6.9916      6.8674      6.6900      6.4747      6.2592      6.0908      6.0069      6.0178      6.1003    
  6.2034      6.2671      6.2434      6.1126      5.8888      5.6118      5.3307      5.0874      4.9046      4.7829    
  4.7090      4.6721      4.6610      4.6680      4.6922      4.7410      4.8271      4.9633      5.1670      5.4495    
  5.8013      6.1905      6.5695      6.8886      7.1121      7.2299      7.2582      7.2304      7.1804      7.1280    
  7.3698      7.2771      7.1280      6.9210      6.6711      6.4108      6.1812      6.0178      5.9359      5.9234    
  5.9443      5.9517      5.9048      5.7838      5.5949      5.3661      5.1345      4.9332      4.7811      4.6793    
  4.6179      4.5886      4.5819      4.5897      4.6093      4.6453      4.7077      4.8089      4.9604      5.1782    
  5.4682      5.8180      6.1978      6.5675      6.8886      7.1346      7.2984      7.3890      7.4237      7.4162    
  7.6237      7.5581      7.4162      7.2013      6.9295      6.6308      6.3428      6.1003      5.9234      5.8109    
  5.7407      5.6793      5.5948      5.4690      5.3027      5.1135      4.9272      4.7674      4.6476      4.5679    
  4.5210      4.5011      4.5001      4.5110      4.5302      4.5598      4.6068      4.6818      4.7955      4.9584    
  5.1843      5.4763      5.8225      6.1978      6.5695      6.9065      7.1866      7.3988      7.5417      7.6169    
  7.7256      7.7190      7.6169      7.4235      7.1548      6.8383      6.5097      6.2034      5.9443      5.7407    
  5.5835      5.4522      5.3243      5.1846      5.0305      4.8717      4.7238      4.6014      4.5124      4.4546    
  4.4228      4.4127      4.4179      4.4328      4.4540      4.4818      4.5207      4.5784      4.6645      4.7875    
  4.9574      5.1861      5.4763      5.8180      6.1905      6.5669      6.9200      7.2270      7.4711      7.6404    
  7.6161      7.6813      7.6404      7.4945      7.2565      6.9507      6.6095      6.2671      5.9517      5.6793    
  5.4522      5.2617      5.0940      4.9383      4.7903      4.6539      4.5366      4.4456      4.3831      4.3452    
  4.3276      4.3267      4.3376      4.3563      4.3801      4.4090      4.4453      4.4937      4.5613      4.6559    
  4.7849      4.9574      5.1843      5.4682      5.8013      6.1661      6.5389      6.8937      7.2057      7.4527    
  7.3013      7.4292      7.4527      7.3675      7.1810      6.9121      6.5889      6.2434      5.9048      5.5948    
  5.3243      5.0940      4.8985      4.7311      4.5876      4.4680      4.3741      4.3075      4.2659      4.2443    
  4.2388      4.2458      4.2614      4.2830      4.3093      4.3403      4.3772      4.4224      4.4800      4.5556    
  4.6559      4.7875      4.9584      5.1782      5.4495      5.7652      6.1100      6.4617      6.7948      7.0829    
  6.8449      7.0095      7.0829      7.0553      6.9277      6.7125      6.4316      6.1126      5.7838      5.4690    
  5.1846      4.9383      4.7311      4.5605      4.4232      4.3171      4.2407      4.1916      4.1648      4.1553    
  4.1590      4.1720      4.1911      4.2147      4.2428      4.2759      4.3149      4.3606      4.4146      4.4800    
  4.5613      4.6645      4.7955      4.9604      5.1670      5.4167      5.7030      6.0114      6.3211      6.6075    
  6.3400      6.5094      6.6075      6.6211      6.5458      6.3875      6.1612      5.8888      5.5949      5.3027    
  5.0305      4.7903      4.5876      4.4232      4.2953      4.2011      4.1373      4.0994      4.0819      4.0803    
  4.0900      4.1068      4.1281      4.1530      4.1823      4.2170      4.2582      4.3060      4.3606      4.4224    
  4.4937      4.5784      4.6818      4.8089      4.9633      5.1497      5.3685      5.6128      5.8693      6.1191    
  5.8749      6.0222      6.1191      6.1517      6.1126      6.0026      5.8304      5.6118      5.3661      5.1135    
  4.8717      4.6539      4.4680      4.3171      4.2011      4.1174      4.0622      4.0304      4.0179      4.0201    
  4.0324      4.0509      4.0732      4.0990      4.1290      4.1650      4.2080      4.2582      4.3149      4.3772    
  4.4453      4.5207      4.6068      4.7077      4.8271      4.9665      5.1267      5.3067      5.5000      5.6947    
  5.5067      5.6176      5.6947      5.7265      5.7050      5.6280      5.4999      5.3307      5.1345      4.9272    
  4.7238      4.5366      4.3741      4.2407      4.1373      4.0622      4.0119      3.9831      3.9720      3.9744    
  3.9864      4.0045      4.0269      4.0530      4.0837      4.1206      4.1650      4.2170      4.2759      4.3403    
  4.4090      4.4818      4.5598      4.6453      4.7410      4.8489      4.9689      5.0991      5.2365      5.3756    
  5.2520      5.3253      5.3756      5.3945      5.3757      5.3165      5.2183      5.0874      4.9332      4.7674    
  4.6014      4.4456      4.3075      4.1916      4.0994      4.0304      3.9831      3.9548      3.9423      3.9423    
  3.9517      3.9677      3.9888      4.0147      4.0459      4.0837      4.1290      4.1823      4.2428      4.3093    
  4.3801      4.4540      4.5302      4.6093      4.6922      4.7798      4.8725      4.9694      5.0680      5.1639    
  5.0928      5.1375      5.1639      5.1672      5.1436      5.0909      5.0100      4.9046      4.7811      4.6476    
  4.5124      4.3831      4.2659      4.1648      4.0819      4.0179      3.9720      3.9423      3.9266      3.9224    
  3.9274      3.9399      3.9587      3.9835      4.0147      4.0530      4.0990      4.1530      4.2147      4.2830    
  4.3563      4.4328      4.5110      4.5897      4.6680      4.7454      4.8218      4.8965      4.9683      5.0349    
  5.0023      5.0261      5.0349      5.0257      4.9961      4.9449      4.8729      4.7829      4.6793      4.5679    
  4.4546      4.3452      4.2443      4.1553      4.0803      4.0201      3.9744      3.9423      3.9224      3.9130    
  3.9128      3.9207      3.9361      3.9587      3.9888      4.0269      4.0732      4.1281      4.1911      4.2614    
  4.3376      4.4179      4.5001      4.5819      4.6610      4.7356      4.8043      4.8662      4.9205      4.9664    
  4.9650      4.9723      4.9664      4.9460      4.9099      4.8577      4.7900      4.7090      4.6179      4.5210    
  4.4228      4.3276      4.2388      4.1590      4.0900      4.0324      3.9864      3.9517      3.9274      3.9128    
  3.9072      3.9099      3.9207      3.9399      3.9677      4.0045      4.0509      4.1068      4.1720      4.2458    
  4.3267      4.4127      4.5011      4.5886      4.6721      4.7482      4.8148      4.8702      4.9137      4.9454    
  4.9723      4.9650      4.9454      4.9137      4.8702      4.8148      4.7482      4.6721      4.5886      4.5011    