unknown system                          
   1.00000000000000     
     1.662000    1.662000   -1.662000
    -1.662000    1.662000    1.662000
     1.662000   -1.662000    1.662000
   Ta
     1
Direct
  0.000000  0.000000  0.000000
 
   40   40   40
 0.78022626399E+01 0.77034765379E+01 0.74472744377E+01 0.71371579634E+01 0.68968919749E+01
 0.68204953247E+01 0.69360002935E+01 0.71960078270E+01 0.74964897612E+01 0.77151562336E+01
 0.77546736857E+01 0.75748531177E+01 0.72021651401E+01 0.67141808631E+01 0.62073816687E+01
 0.57634022703E+01 0.54272715085E+01 0.52033140561E+01 0.50667447742E+01 0.49938575413E+01
 0.49713919458E+01 0.49938575413E+01 0.50667447742E+01 0.52033140561E+01 0.54272715085E+01
 0.57634022703E+01 0.62073816687E+01 0.67141808631E+01 0.72021651401E+01 0.75748531177E+01
 0.77546736857E+01 0.77151562336E+01 0.74964897612E+01 0.71960078270E+01 0.69360002935E+01
 0.68204953247E+01 0.68968919749E+01 0.71371579634E+01 0.74472744377E+01 0.77034765379E+01
 0.77034765379E+01 0.76700260472E+01 0.74649898020E+01 0.71721876540E+01 0.69106517527E+01
 0.67857054255E+01 0.68472539574E+01 0.70712760586E+01 0.73697966001E+01 0.76237386568E+01
 0.77255969511E+01 0.76160812861E+01 0.73013112171E+01 0.68448974487E+01 0.63400003948E+01
 0.58748967169E+01 0.55067446275E+01 0.52519525479E+01 0.50928313401E+01 0.50022919624E+01
 0.49650076066E+01 0.49723083566E+01 0.50260701675E+01 0.51375307856E+01 0.53253074911E+01
 0.56175615487E+01 0.60222193358E+01 0.65093557168E+01 0.70095125098E+01 0.74292254157E+01
 0.76813352374E+01 0.77189963013E+01 0.75581412508E+01 0.72770599666E+01 0.69916286798E+01
 0.68149562985E+01 0.68162927029E+01 0.69946645443E+01 0.72782870125E+01 0.75519825076E+01
 0.74472744377E+01 0.74649898020E+01 0.73204089590E+01 0.70721554898E+01 0.68236479040E+01
 0.66796856756E+01 0.67034849469E+01 0.68915481802E+01 0.71749892981E+01 0.74451616828E+01
 0.75929287762E+01 0.75466685246E+01 0.72948839062E+01 0.68854057710E+01 0.64030937811E+01
 0.59371936765E+01 0.55528366418E+01 0.52769004267E+01 0.51001879129E+01 0.49955675191E+01
 0.49456084768E+01 0.49392105342E+01 0.49745748746E+01 0.50603459757E+01 0.52114033991E+01
 0.54534117868E+01 0.58050066441E+01 0.62526185637E+01 0.67434544037E+01 0.71939123686E+01
 0.75139402004E+01 0.76397364961E+01 0.75610073447E+01 0.73296889888E+01 0.70447994078E+01
 0.68183773785E+01 0.67351513940E+01 0.68211326133E+01 0.70336695022E+01 0.72782870125E+01
 0.71371579634E+01 0.71721876540E+01 0.70721554898E+01 0.68713312318E+01 0.66517047005E+01
 0.65080330719E+01 0.65076487789E+01 0.66620079692E+01 0.69208570566E+01 0.71901723966E+01
 0.73660735346E+01 0.73714757785E+01 0.71815719026E+01 0.68287634609E+01 0.63863472232E+01
 0.59394571853E+01 0.55565060782E+01 0.52720789010E+01 0.50851289934E+01 0.49716273010E+01
 0.49126242701E+01 0.48955186012E+01 0.49151626086E+01 0.49769974786E+01 0.50939639068E+01
 0.52854942878E+01 0.55764045035E+01 0.59687360402E+01 0.64289350198E+01 0.68893890350E+01
 0.72651928894E+01 0.74823675295E+01 0.75066815811E+01 0.73599322365E+01 0.71152510257E+01
 0.68721360240E+01 0.67205280576E+01 0.67077156301E+01 0.68211326133E+01 0.69946645443E+01
 0.68968919749E+01 0.69106517527E+01 0.68236479040E+01 0.66517047005E+01 0.64552814136E+01
 0.63139557640E+01 0.62919087116E+01 0.64094560225E+01 0.66323619900E+01 0.68827424642E+01
 0.70666938355E+01 0.71075860206E+01 0.69720666930E+01 0.66789273100E+01 0.62882954434E+01
 0.58771581325E+01 0.55125984691E+01 0.52334418516E+01 0.50453501391E+01 0.49290655426E+01
 0.48655963915E+01 0.48417706410E+01 0.48497640451E+01 0.48916089666E+01 0.49782896920E+01
 0.51248179749E+01 0.53543263166E+01 0.56816882545E+01 0.60926930615E+01 0.65398448275E+01
 0.69511853389E+01 0.72515903165E+01 0.73894991820E+01 0.73576897183E+01 0.71980886051E+01
 0.69873942725E+01 0.68087306580E+01 0.67205280576E+01 0.67351513940E+01 0.68162927029E+01
 0.68204953247E+01 0.67857054255E+01 0.66796856756E+01 0.65080330719E+01 0.63139557640E+01
 0.61613795337E+01 0.61074371815E+01 0.61765386458E+01 0.63472924846E+01 0.65577553609E+01
 0.67267609030E+01 0.67826564124E+01 0.66879803355E+01 0.64504850682E+01 0.61168767890E+01
 0.57532008491E+01 0.54211791349E+01 0.51602044760E+01 0.49804728693E+01 0.48677670324E+01
 0.48047049437E+01 0.47784866034E+01 0.47795404095E+01 0.48067244181E+01 0.48682396310E+01
 0.49776899206E+01 0.51517841122E+01 0.54117805224E+01 0.57604189290E+01 0.61715350849E+01
 0.65919275527E+01 0.69546602409E+01 0.72005526350E+01 0.72995748967E+01 0.72624678507E+01
 0.71366399114E+01 0.69873942725E+01 0.68721360240E+01 0.68183773785E+01 0.68149562985E+01
 0.69360002935E+01 0.68472539574E+01 0.67034849469E+01 0.65076487789E+01 0.62919087116E+01
 0.61074371815E+01 0.60037759913E+01 0.60068733801E+01 0.61056548880E+01 0.62532433976E+01
 0.63825963872E+01 0.64302146650E+01 0.63582531807E+01 0.61662151221E+01 0.58881304107E+01
 0.55775686942E+01 0.52877969665E+01 0.50553793591E+01 0.48925142787E+01 0.47892960916E+01
 0.47311745707E+01 0.47065822511E+01 0.47052527319E+01 0.47235115487E+01 0.47664383406E+01
 0.48459338528E+01 0.49756288884E+01 0.51733589021E+01 0.54539586331E+01 0.58107043114E+01
 0.62116623061E+01 0.66054994235E+01 0.69359341767E+01 0.71601134543E+01 0.72632256841E+01
 0.72624678507E+01 0.71980886051E+01 0.71152510257E+01 0.70447994078E+01 0.69916286798E+01
 0.71960078270E+01 0.70712760586E+01 0.68915481802E+01 0.66620079692E+01 0.64094560225E+01
 0.61765386458E+01 0.60068733801E+01 0.59273968349E+01 0.59359064869E+01 0.59997086480E+01
 0.60664600644E+01 0.60829077725E+01 0.60137586950E+01 0.58529682857E+01 0.56233315900E+01
 0.53655940549E+01 0.51226353328E+01 0.49254860520E+01 0.47858718719E+01 0.46968980819E+01
 0.46473991065E+01 0.46276290345E+01 0.46276402196E+01 0.46421669217E+01 0.46733776490E+01
 0.47304796425E+01 0.48262917642E+01 0.49733351386E+01 0.51886726657E+01 0.54805915696E+01
 0.58372642482E+01 0.62267674523E+01 0.66044118239E+01 0.69257048623E+01 0.71601134543E+01
 0.72995748967E+01 0.73576897183E+01 0.73599322365E+01 0.73296889888E+01 0.72770599666E+01
 0.74964897612E+01 0.73697966001E+01 0.71749892981E+01 0.69208570566E+01 0.66323619900E+01
 0.63472924846E+01 0.61056548880E+01 0.59359064869E+01 0.58440637639E+01 0.58108529522E+01
 0.57986761129E+01 0.57657579366E+01 0.56815407745E+01 0.55368917681E+01 0.53452742713E+01
 0.51353098698E+01 0.49388062974E+01 0.47795482642E+01 0.46667587608E+01 0.45951169011E+01
 0.45567410586E+01 0.45438727879E+01 0.45476954340E+01 0.45624169131E+01 0.45879737570E+01
 0.46305783562E+01 0.47009752570E+01 0.48108396175E+01 0.49715052151E+01 0.51979661447E+01
 0.54943289904E+01 0.58477529201E+01 0.62300134220E+01 0.66044118239E+01 0.69359341767E+01
 0.72005526350E+01 0.73894991820E+01 0.75066815811E+01 0.75610073447E+01 0.75581412508E+01
 0.77151562336E+01 0.76237386568E+01 0.74451616828E+01 0.71901723966E+01 0.68827424642E+01
 0.65577553609E+01 0.62532433976E+01 0.59997086480E+01 0.58108529522E+01 0.56799013057E+01
 0.55834976388E+01 0.54917871516E+01 0.53804061476E+01 0.52392517589E+01 0.50746128153E+01
 0.49045286338E+01 0.47502290804E+01 0.46276692388E+01 0.45422788220E+01 0.44891595220E+01
 0.44630880285E+01 0.44580294872E+01 0.44667875032E+01 0.44840203419E+01 0.45083961055E+01
 0.45434682961E+01 0.45970957758E+01 0.46795243303E+01 0.48004761722E+01 0.49703908198E+01
 0.52022029644E+01 0.54984314718E+01 0.58477529201E+01 0.62267674523E+01 0.66054994235E+01
 0.69546602409E+01 0.72515903165E+01 0.74823675295E+01 0.76397364961E+01 0.77189963013E+01
 0.77546736857E+01 0.77255969511E+01 0.75929287762E+01 0.73660735346E+01 0.70666938355E+01
 0.67267609030E+01 0.63825963872E+01 0.60664600644E+01 0.57986761129E+01 0.55834976388E+01
 0.54105957796E+01 0.52616619118E+01 0.51192499040E+01 0.49739741430E+01 0.48271467373E+01
 0.46883209116E+01 0.45695850432E+01 0.44795410399E+01 0.44194047300E+01 0.43842005017E+01
 0.43703263252E+01 0.43729564784E+01 0.43866369892E+01 0.44071735709E+01 0.44329613963E+01
 0.44656758761E+01 0.45102857098E+01 0.45743700450E+01 0.46667304060E+01 0.47953823806E+01
 0.49700237602E+01 0.52022029644E+01 0.54943289904E+01 0.58372642482E+01 0.62116623061E+01
 0.65919275527E+01 0.69511853389E+01 0.72651928894E+01 0.75139402004E+01 0.76813352374E+01
 0.75748531177E+01 0.76160812861E+01 0.75466685246E+01 0.73714757785E+01 0.71075860206E+01
 0.67826564124E+01 0.64302146650E+01 0.60829077725E+01 0.57657579366E+01 0.54917871516E+01
 0.52616619118E+01 0.50674165734E+01 0.48985138488E+01 0.47474692940E+01 0.46126480425E+01
 0.44974324702E+01 0.44067793143E+01 0.43432070994E+01 0.43041508468E+01 0.42847992210E+01
 0.42818929495E+01 0.42913204965E+01 0.43091754248E+01 0.43327168876E+01 0.43608461035E+01
 0.43943005978E+01 0.44357547495E+01 0.44898499356E+01 0.45629753485E+01 0.46625101828E+01
 0.47953823806E+01 0.49703908198E+01 0.51979661447E+01 0.54805915696E+01 0.58107043114E+01
 0.61715350849E+01 0.65398448275E+01 0.68893890350E+01 0.71939123686E+01 0.74292254157E+01
 0.72021651401E+01 0.73013112171E+01 0.72948839062E+01 0.71815719026E+01 0.69720666930E+01
 0.66879803355E+01 0.63582531807E+01 0.60137586950E+01 0.56815407745E+01 0.53804061476E+01
 0.51192499040E+01 0.48985138488E+01 0.47138924715E+01 0.45604538666E+01 0.44353082728E+01
 0.43378821586E+01 0.42681726103E+01 0.42242883058E+01 0.42011916980E+01 0.41945272083E+01
 0.42005021530E+01 0.42153516382E+01 0.42363320946E+01 0.42620742904E+01 0.42923832835E+01
 0.43278643621E+01 0.43697775078E+01 0.44202914977E+01 0.44829598961E+01 0.45629753485E+01
 0.46667304060E+01 0.48004761722E+01 0.49715052151E+01 0.51886726657E+01 0.54539586331E+01
 0.57604189290E+01 0.60926930615E+01 0.64289350198E+01 0.67434544037E+01 0.70095125098E+01
 0.67141808631E+01 0.68448974487E+01 0.68854057710E+01 0.68287634609E+01 0.66789273100E+01
 0.64504850682E+01 0.61662151221E+01 0.58529682857E+01 0.55368917681E+01 0.52392517589E+01
 0.49739741430E+01 0.47474692940E+01 0.45604538666E+01 0.44106905091E+01 0.42952822994E+01
 0.42115758437E+01 0.41565955405E+01 0.41257488147E+01 0.41135858070E+01 0.41158181884E+01
 0.41280564171E+01 0.41467145078E+01 0.41697937015E+01 0.41969377506E+01 0.42288425360E+01
 0.42664464246E+01 0.43104269866E+01 0.43613332145E+01 0.44202914977E+01 0.44898499356E+01
 0.45743700450E+01 0.46795243303E+01 0.48108396175E+01 0.49733351386E+01 0.51733589021E+01
 0.54117805224E+01 0.56816882545E+01 0.59687360402E+01 0.62526185637E+01 0.65093557168E+01
 0.62073816687E+01 0.63400003948E+01 0.64030937811E+01 0.63863472232E+01 0.62882954434E+01
 0.61168767890E+01 0.58881304107E+01 0.56233315900E+01 0.53452742713E+01 0.50746128153E+01
 0.48271467373E+01 0.46126480425E+01 0.44353082728E+01 0.42952822994E+01 0.41904284509E+01
 0.41174202091E+01 0.40718995439E+01 0.40485234320E+01 0.40427708564E+01 0.40499967320E+01
 0.40656907469E+01 0.40864806087E+01 0.41107883909E+01 0.41388062003E+01 0.41718017689E+01
 0.42111172447E+01 0.42573917625E+01 0.43104269866E+01 0.43697775078E+01 0.44357547495E+01
 0.45102857098E+01 0.45970957758E+01 0.47009752570E+01 0.48262917642E+01 0.49756288884E+01
 0.51517841122E+01 0.53543263166E+01 0.55764045035E+01 0.58050066441E+01 0.60222193358E+01
 0.57634022703E+01 0.58748967169E+01 0.59371936765E+01 0.59394571853E+01 0.58771581325E+01
 0.57532008491E+01 0.55775686942E+01 0.53655940549E+01 0.51353098698E+01 0.49045286338E+01
 0.46883209116E+01 0.44974324702E+01 0.43378821586E+01 0.42115758437E+01 0.41174202091E+01
 0.40523189511E+01 0.40118976193E+01 0.39921122823E+01 0.39887872920E+01 0.39974242586E+01
 0.40138853591E+01 0.40351707905E+01 0.40599508322E+01 0.40885604189E+01 0.41224010859E+01
 0.41629936441E+01 0.42111172447E+01 0.42664464246E+01 0.43278643621E+01 0.43943005978E+01
 0.44656758761E+01 0.45434682961E+01 0.46305783562E+01 0.47304796425E+01 0.48459338528E+01
 0.49776899206E+01 0.51248179749E+01 0.52854942878E+01 0.54534117868E+01 0.56175615487E+01
 0.54272715085E+01 0.55067446275E+01 0.55528366418E+01 0.55565060782E+01 0.55125984691E+01
 0.54211791349E+01 0.52877969665E+01 0.51226353328E+01 0.49388062974E+01 0.47502290804E+01
 0.45695850432E+01 0.44067793143E+01 0.42681726103E+01 0.41565955405E+01 0.40718995439E+01
 0.40118976193E+01 0.39739304407E+01 0.39547525757E+01 0.39506228901E+01 0.39577112435E+01
 0.39726048331E+01 0.39928471312E+01 0.40173184384E+01 0.40462543532E+01 0.40808248763E+01
 0.41224010859E+01 0.41718017689E+01 0.42288425360E+01 0.42923832835E+01 0.43608461035E+01
 0.44329613963E+01 0.45083961055E+01 0.45879737570E+01 0.46733776490E+01 0.47664383406E+01
 0.48682396310E+01 0.49782896920E+01 0.50939639068E+01 0.52114033991E+01 0.53253074911E+01
 0.52033140561E+01 0.52519525479E+01 0.52769004267E+01 0.52720789010E+01 0.52334418516E+01
 0.51602044760E+01 0.50553793591E+01 0.49254860520E+01 0.47795482642E+01 0.46276692388E+01
 0.44795410399E+01 0.43432070994E+01 0.42242883058E+01 0.41257488147E+01 0.40485234320E+01
 0.39921122823E+01 0.39547525757E+01 0.39338885678E+01 0.39265959560E+01 0.39299618639E+01
 0.39414520575E+01 0.39592490253E+01 0.39824791881E+01 0.40112231425E+01 0.40462543532E+01
 0.40885604189E+01 0.41388062003E+01 0.41969377506E+01 0.42620742904E+01 0.43327168876E+01
 0.44071735709E+01 0.44840203419E+01 0.45624169131E+01 0.46421669217E+01 0.47235115487E+01
 0.48067244181E+01 0.48916089666E+01 0.49769974786E+01 0.50603459757E+01 0.51375307856E+01
 0.50667447742E+01 0.50928313401E+01 0.51001879129E+01 0.50851289934E+01 0.50453501391E+01
 0.49804728693E+01 0.48925142787E+01 0.47858718719E+01 0.46667587608E+01 0.45422788220E+01
 0.44194047300E+01 0.43041508468E+01 0.42011916980E+01 0.41135858070E+01 0.40427708564E+01
 0.39887872920E+01 0.39506228901E+01 0.39265959560E+01 0.39147204506E+01 0.39130280046E+01
 0.39198388800E+01 0.39339691520E+01 0.39548438486E+01 0.39824791881E+01 0.40173184384E+01
 0.40599508322E+01 0.41107883909E+01 0.41697937015E+01 0.42363320946E+01 0.43091754248E+01
 0.43866369892E+01 0.44667875032E+01 0.45476954340E+01 0.46276402196E+01 0.47052527319E+01
 0.47795404095E+01 0.48497640451E+01 0.49151626086E+01 0.49745748746E+01 0.50260701675E+01
 0.49938575413E+01 0.50022919624E+01 0.49955675191E+01 0.49716273010E+01 0.49290655426E+01
 0.48677670324E+01 0.47892960916E+01 0.46968980819E+01 0.45951169011E+01 0.44891595220E+01
 0.43842005017E+01 0.42847992210E+01 0.41945272083E+01 0.41158181884E+01 0.40499967320E+01
 0.39974242586E+01 0.39577112435E+01 0.39299618639E+01 0.39130280046E+01 0.39057510530E+01
 0.39071672468E+01 0.39166503676E+01 0.39339691520E+01 0.39592490253E+01 0.39928471312E+01
 0.40351707905E+01 0.40864806087E+01 0.41467145078E+01 0.42153516382E+01 0.42913204965E+01
 0.43729564784E+01 0.44580294872E+01 0.45438727879E+01 0.46276290345E+01 0.47065822511E+01
 0.47784866034E+01 0.48417706410E+01 0.48955186012E+01 0.49392105342E+01 0.49723083566E+01
 0.49713919458E+01 0.49650076066E+01 0.49456084768E+01 0.49126242701E+01 0.48655963915E+01
 0.48047049437E+01 0.47311745707E+01 0.46473991065E+01 0.45567410586E+01 0.44630880285E+01
 0.43703263252E+01 0.42818929495E+01 0.42005021530E+01 0.41280564171E+01 0.40656907469E+01
 0.40138853591E+01 0.39726048331E+01 0.39414520575E+01 0.39198388800E+01 0.39071672468E+01
 0.39029971535E+01 0.39071672468E+01 0.39198388800E+01 0.39414520575E+01 0.39726048331E+01
 0.40138853591E+01 0.40656907469E+01 0.41280564171E+01 0.42005021530E+01 0.42818929495E+01
 0.43703263252E+01 0.44630880285E+01 0.45567410586E+01 0.46473991065E+01 0.47311745707E+01
 0.48047049437E+01 0.48655963915E+01 0.49126242701E+01 0.49456084768E+01 0.49650076066E+01
 0.49938575413E+01 0.49723083566E+01 0.49392105342E+01 0.48955186012E+01 0.48417706410E+01
 0.47784866034E+01 0.47065822511E+01 0.46276290345E+01 0.45438727879E+01 0.44580294872E+01
 0.43729564784E+01 0.42913204965E+01 0.42153516382E+01 0.41467145078E+01 0.40864806087E+01
 0.40351707905E+01 0.39928471312E+01 0.39592490253E+01 0.39339691520E+01 0.39166503676E+01
 0.39071672468E+01 0.39057510530E+01 0.39130280046E+01 0.39299618639E+01 0.39577112435E+01
 0.39974242586E+01 0.40499967320E+01 0.41158181884E+01 0.41945272083E+01 0.42847992210E+01
 0.43842005017E+01 0.44891595220E+01 0.45951169011E+01 0.46968980819E+01 0.47892960916E+01
 0.48677670324E+01 0.49290655426E+01 0.49716273010E+01 0.49955675191E+01 0.50022919624E+01
 0.50667447742E+01 0.50260701675E+01 0.49745748746E+01 0.49151626086E+01 0.48497640451E+01
 0.47795404095E+01 0.47052527319E+01 0.46276402196E+01 0.45476954340E+01 0.44667875032E+01
 0.43866369892E+01 0.43091754248E+01 0.42363320946E+01 0.41697937015E+01 0.41107883909E+01
 0.40599508322E+01 0.40173184384E+01 0.39824791881E+01 0.39548438486E+01 0.39339691520E+01
 0.39198388800E+01 0.39130280046E+01 0.39147204506E+01 0.39265959560E+01 0.39506228901E+01
 0.39887872920E+01 0.40427708564E+01 0.41135858070E+01 0.42011916980E+01 0.43041508468E+01
 0.44194047300E+01 0.45422788220E+01 0.46667587608E+01 0.47858718719E+01 0.48925142787E+01
 0.49804728693E+01 0.50453501391E+01 0.50851289934E+01 0.51001879129E+01 0.50928313401E+01
 0.52033140561E+01 0.51375307856E+01 0.50603459757E+01 0.49769974786E+01 0.48916089666E+01
 0.48067244181E+01 0.47235115487E+01 0.46421669217E+01 0.45624169131E+01 0.44840203419E+01
 0.44071735709E+01 0.43327168876E+01 0.42620742904E+01 0.41969377506E+01 0.41388062003E+01
 0.40885604189E+01 0.40462543532E+01 0.40112231425E+01 0.39824791881E+01 0.39592490253E+01
 0.39414520575E+01 0.39299618639E+01 0.39265959560E+01 0.39338885678E+01 0.39547525757E+01
 0.39921122823E+01 0.40485234320E+01 0.41257488147E+01 0.42242883058E+01 0.43432070994E+01
 0.44795410399E+01 0.46276692388E+01 0.47795482642E+01 0.49254860520E+01 0.50553793591E+01
 0.51602044760E+01 0.52334418516E+01 0.52720789010E+01 0.52769004267E+01 0.52519525479E+01
 0.54272715085E+01 0.53253074911E+01 0.52114033991E+01 0.50939639068E+01 0.49782896920E+01
 0.48682396310E+01 0.47664383406E+01 0.46733776490E+01 0.45879737570E+01 0.45083961055E+01
 0.44329613963E+01 0.43608461035E+01 0.42923832835E+01 0.42288425360E+01 0.41718017689E+01
 0.41224010859E+01 0.40808248763E+01 0.40462543532E+01 0.40173184384E+01 0.39928471312E+01
 0.39726048331E+01 0.39577112435E+01 0.39506228901E+01 0.39547525757E+01 0.39739304407E+01
 0.40118976193E+01 0.40718995439E+01 0.41565955405E+01 0.42681726103E+01 0.44067793143E+01
 0.45695850432E+01 0.47502290804E+01 0.49388062974E+01 0.51226353328E+01 0.52877969665E+01
 0.54211791349E+01 0.55125984691E+01 0.55565060782E+01 0.55528366418E+01 0.55067446275E+01
 0.57634022703E+01 0.56175615487E+01 0.54534117868E+01 0.52854942878E+01 0.51248179749E+01
 0.49776899206E+01 0.48459338528E+01 0.47304796425E+01 0.46305783562E+01 0.45434682961E+01
 0.44656758761E+01 0.43943005978E+01 0.43278643621E+01 0.42664464246E+01 0.42111172447E+01
 0.41629936441E+01 0.41224010859E+01 0.40885604189E+01 0.40599508322E+01 0.40351707905E+01
 0.40138853591E+01 0.39974242586E+01 0.39887872920E+01 0.39921122823E+01 0.40118976193E+01
 0.40523189511E+01 0.41174202091E+01 0.42115758437E+01 0.43378821586E+01 0.44974324702E+01
 0.46883209116E+01 0.49045286338E+01 0.51353098698E+01 0.53655940549E+01 0.55775686942E+01
 0.57532008491E+01 0.58771581325E+01 0.59394571853E+01 0.59371936765E+01 0.58748967169E+01
 0.62073816687E+01 0.60222193358E+01 0.58050066441E+01 0.55764045035E+01 0.53543263166E+01
 0.51517841122E+01 0.49756288884E+01 0.48262917642E+01 0.47009752570E+01 0.45970957758E+01
 0.45102857098E+01 0.44357547495E+01 0.43697775078E+01 0.43104269866E+01 0.42573917625E+01
 0.42111172447E+01 0.41718017689E+01 0.41388062003E+01 0.41107883909E+01 0.40864806087E+01
 0.40656907469E+01 0.40499967320E+01 0.40427708564E+01 0.40485234320E+01 0.40718995439E+01
 0.41174202091E+01 0.41904284509E+01 0.42952822994E+01 0.44353082728E+01 0.46126480425E+01
 0.48271467373E+01 0.50746128153E+01 0.53452742713E+01 0.56233315900E+01 0.58881304107E+01
 0.61168767890E+01 0.62882954434E+01 0.63863472232E+01 0.64030937811E+01 0.63400003948E+01
 0.67141808631E+01 0.65093557168E+01 0.62526185637E+01 0.59687360402E+01 0.56816882545E+01
 0.54117805224E+01 0.51733589021E+01 0.49733351386E+01 0.48108396175E+01 0.46795243303E+01
 0.45743700450E+01 0.44898499356E+01 0.44202914977E+01 0.43613332145E+01 0.43104269866E+01
 0.42664464246E+01 0.42288425360E+01 0.41969377506E+01 0.41697937015E+01 0.41467145078E+01
 0.41280564171E+01 0.41158181884E+01 0.41135858070E+01 0.41257488147E+01 0.41565955405E+01
 0.42115758437E+01 0.42952822994E+01 0.44106905091E+01 0.45604538666E+01 0.47474692940E+01
 0.49739741430E+01 0.52392517589E+01 0.55368917681E+01 0.58529682857E+01 0.61662151221E+01
 0.64504850682E+01 0.66789273100E+01 0.68287634609E+01 0.68854057710E+01 0.68448974487E+01
 0.72021651401E+01 0.70095125098E+01 0.67434544037E+01 0.64289350198E+01 0.60926930615E+01
 0.57604189290E+01 0.54539586331E+01 0.51886726657E+01 0.49715052151E+01 0.48004761722E+01
 0.46667304060E+01 0.45629753485E+01 0.44829598961E+01 0.44202914977E+01 0.43697775078E+01
 0.43278643621E+01 0.42923832835E+01 0.42620742904E+01 0.42363320946E+01 0.42153516382E+01
 0.42005021530E+01 0.41945272083E+01 0.42011916980E+01 0.42242883058E+01 0.42681726103E+01
 0.43378821586E+01 0.44353082728E+01 0.45604538666E+01 0.47138924715E+01 0.48985138488E+01
 0.51192499040E+01 0.53804061476E+01 0.56815407745E+01 0.60137586950E+01 0.63582531807E+01
 0.66879803355E+01 0.69720666930E+01 0.71815719026E+01 0.72948839062E+01 0.73013112171E+01
 0.75748531177E+01 0.74292254157E+01 0.71939123686E+01 0.68893890350E+01 0.65398448275E+01
 0.61715350849E+01 0.58107043114E+01 0.54805915696E+01 0.51979661447E+01 0.49703908198E+01
 0.47953823806E+01 0.46625101828E+01 0.45629753485E+01 0.44898499356E+01 0.44357547495E+01
 0.43943005978E+01 0.43608461035E+01 0.43327168876E+01 0.43091754248E+01 0.42913204965E+01
 0.42818929495E+01 0.42847992210E+01 0.43041508468E+01 0.43432070994E+01 0.44067793143E+01
 0.44974324702E+01 0.46126480425E+01 0.47474692940E+01 0.48985138488E+01 0.50674165734E+01
 0.52616619118E+01 0.54917871516E+01 0.57657579366E+01 0.60829077725E+01 0.64302146650E+01
 0.67826564124E+01 0.71075860206E+01 0.73714757785E+01 0.75466685246E+01 0.76160812861E+01
 0.77546736857E+01 0.76813352374E+01 0.75139402004E+01 0.72651928894E+01 0.69511853389E+01
 0.65919275527E+01 0.62116623061E+01 0.58372642482E+01 0.54943289904E+01 0.52022029644E+01
 0.49700237602E+01 0.47953823806E+01 0.46667304060E+01 0.45743700450E+01 0.45102857098E+01
 0.44656758761E+01 0.44329613963E+01 0.44071735709E+01 0.43866369892E+01 0.43729564784E+01
 0.43703263252E+01 0.43842005017E+01 0.44194047300E+01 0.44795410399E+01 0.45695850432E+01
 0.46883209116E+01 0.48271467373E+01 0.49739741430E+01 0.51192499040E+01 0.52616619118E+01
 0.54105957796E+01 0.55834976388E+01 0.57986761129E+01 0.60664600644E+01 0.63825963872E+01
 0.67267609030E+01 0.70666938355E+01 0.73660735346E+01 0.75929287762E+01 0.77255969511E+01
 0.77151562336E+01 0.77189963013E+01 0.76397364961E+01 0.74823675295E+01 0.72515903165E+01
 0.69546602409E+01 0.66054994235E+01 0.62267674523E+01 0.58477529201E+01 0.54984314718E+01
 0.52022029644E+01 0.49703908198E+01 0.48004761722E+01 0.46795243303E+01 0.45970957758E+01
 0.45434682961E+01 0.45083961055E+01 0.44840203419E+01 0.44667875032E+01 0.44580294872E+01
 0.44630880285E+01 0.44891595220E+01 0.45422788220E+01 0.46276692388E+01 0.47502290804E+01
 0.49045286338E+01 0.50746128153E+01 0.52392517589E+01 0.53804061476E+01 0.54917871516E+01
 0.55834976388E+01 0.56799013057E+01 0.58108529522E+01 0.59997086480E+01 0.62532433976E+01
 0.65577553609E+01 0.68827424642E+01 0.71901723966E+01 0.74451616828E+01 0.76237386568E+01
 0.74964897612E+01 0.75581412508E+01 0.75610073447E+01 0.75066815811E+01 0.73894991820E+01
 0.72005526350E+01 0.69359341767E+01 0.66044118239E+01 0.62300134220E+01 0.58477529201E+01
 0.54943289904E+01 0.51979661447E+01 0.49715052151E+01 0.48108396175E+01 0.47009752570E+01
 0.46305783562E+01 0.45879737570E+01 0.45624169131E+01 0.45476954340E+01 0.45438727879E+01
 0.45567410586E+01 0.45951169011E+01 0.46667587608E+01 0.47795482642E+01 0.49388062974E+01
 0.51353098698E+01 0.53452742713E+01 0.55368917681E+01 0.56815407745E+01 0.57657579366E+01
 0.57986761129E+01 0.58108529522E+01 0.58440637639E+01 0.59359064869E+01 0.61056548880E+01
 0.63472924846E+01 0.66323619900E+01 0.69208570566E+01 0.71749892981E+01 0.73697966001E+01
 0.71960078270E+01 0.72770599666E+01 0.73296889888E+01 0.73599322365E+01 0.73576897183E+01
 0.72995748967E+01 0.71601134543E+01 0.69257048623E+01 0.66044118239E+01 0.62267674523E+01
 0.58372642482E+01 0.54805915696E+01 0.51886726657E+01 0.49733351386E+01 0.48262917642E+01
 0.47304796425E+01 0.46733776490E+01 0.46421669217E+01 0.46276402196E+01 0.46276290345E+01
 0.46473991065E+01 0.46968980819E+01 0.47858718719E+01 0.49254860520E+01 0.51226353328E+01
 0.53655940549E+01 0.56233315900E+01 0.58529682857E+01 0.60137586950E+01 0.60829077725E+01
 0.60664600644E+01 0.59997086480E+01 0.59359064869E+01 0.59273968349E+01 0.60068733801E+01
 0.61765386458E+01 0.64094560225E+01 0.66620079692E+01 0.68915481802E+01 0.70712760586E+01
 0.69360002935E+01 0.69916286798E+01 0.70447994078E+01 0.71152510257E+01 0.71980886051E+01
 0.72624678507E+01 0.72632256841E+01 0.71601134543E+01 0.69359341767E+01 0.66054994235E+01
 0.62116623061E+01 0.58107043114E+01 0.54539586331E+01 0.51733589021E+01 0.49756288884E+01
 0.48459338528E+01 0.47664383406E+01 0.47235115487E+01 0.47052527319E+01 0.47065822511E+01
 0.47311745707E+01 0.47892960916E+01 0.48925142787E+01 0.50553793591E+01 0.52877969665E+01
 0.55775686942E+01 0.58881304107E+01 0.61662151221E+01 0.63582531807E+01 0.64302146650E+01
 0.63825963872E+01 0.62532433976E+01 0.61056548880E+01 0.60068733801E+01 0.60037759913E+01
 0.61074371815E+01 0.62919087116E+01 0.65076487789E+01 0.67034849469E+01 0.68472539574E+01
 0.68204953247E+01 0.68149562985E+01 0.68183773785E+01 0.68721360240E+01 0.69873942725E+01
 0.71366399114E+01 0.72624678507E+01 0.72995748967E+01 0.72005526350E+01 0.69546602409E+01
 0.65919275527E+01 0.61715350849E+01 0.57604189290E+01 0.54117805224E+01 0.51517841122E+01
 0.49776899206E+01 0.48682396310E+01 0.48067244181E+01 0.47795404095E+01 0.47784866034E+01
 0.48047049437E+01 0.48677670324E+01 0.49804728693E+01 0.51602044760E+01 0.54211791349E+01
 0.57532008491E+01 0.61168767890E+01 0.64504850682E+01 0.66879803355E+01 0.67826564124E+01
 0.67267609030E+01 0.65577553609E+01 0.63472924846E+01 0.61765386458E+01 0.61074371815E+01
 0.61613795337E+01 0.63139557640E+01 0.65080330719E+01 0.66796856756E+01 0.67857054255E+01
 0.68968919749E+01 0.68162927029E+01 0.67351513940E+01 0.67205280576E+01 0.68087306580E+01
 0.69873942725E+01 0.71980886051E+01 0.73576897183E+01 0.73894991820E+01 0.72515903165E+01
 0.69511853389E+01 0.65398448275E+01 0.60926930615E+01 0.56816882545E+01 0.53543263166E+01
 0.51248179749E+01 0.49782896920E+01 0.48916089666E+01 0.48497640451E+01 0.48417706410E+01
 0.48655963915E+01 0.49290655426E+01 0.50453501391E+01 0.52334418516E+01 0.55125984691E+01
 0.58771581325E+01 0.62882954434E+01 0.66789273100E+01 0.69720666930E+01 0.71075860206E+01
 0.70666938355E+01 0.68827424642E+01 0.66323619900E+01 0.64094560225E+01 0.62919087116E+01
 0.63139557640E+01 0.64552814136E+01 0.66517047005E+01 0.68236479040E+01 0.69106517527E+01
 0.71371579634E+01 0.69946645443E+01 0.68211326133E+01 0.67077156301E+01 0.67205280576E+01
 0.68721360240E+01 0.71152510257E+01 0.73599322365E+01 0.75066815811E+01 0.74823675295E+01
 0.72651928894E+01 0.68893890350E+01 0.64289350198E+01 0.59687360402E+01 0.55764045035E+01
 0.52854942878E+01 0.50939639068E+01 0.49769974786E+01 0.49151626086E+01 0.48955186012E+01
 0.49126242701E+01 0.49716273010E+01 0.50851289934E+01 0.52720789010E+01 0.55565060782E+01
 0.59394571853E+01 0.63863472232E+01 0.68287634609E+01 0.71815719026E+01 0.73714757785E+01
 0.73660735346E+01 0.71901723966E+01 0.69208570566E+01 0.66620079692E+01 0.65076487789E+01
 0.65080330719E+01 0.66517047005E+01 0.68713312318E+01 0.70721554898E+01 0.71721876540E+01
 0.74472744377E+01 0.72782870125E+01 0.70336695022E+01 0.68211326133E+01 0.67351513940E+01
 0.68183773785E+01 0.70447994078E+01 0.73296889888E+01 0.75610073447E+01 0.76397364961E+01
 0.75139402004E+01 0.71939123686E+01 0.67434544037E+01 0.62526185637E+01 0.58050066441E+01
 0.54534117868E+01 0.52114033991E+01 0.50603459757E+01 0.49745748746E+01 0.49392105342E+01
 0.49456084768E+01 0.49955675191E+01 0.51001879129E+01 0.52769004267E+01 0.55528366418E+01
 0.59371936765E+01 0.64030937811E+01 0.68854057710E+01 0.72948839062E+01 0.75466685246E+01
 0.75929287762E+01 0.74451616828E+01 0.71749892981E+01 0.68915481802E+01 0.67034849469E+01
 0.66796856756E+01 0.68236479040E+01 0.70721554898E+01 0.73204089590E+01 0.74649898020E+01
 0.77034765379E+01 0.75519825076E+01 0.72782870125E+01 0.69946645443E+01 0.68162927029E+01
 0.68149562985E+01 0.69916286798E+01 0.72770599666E+01 0.75581412508E+01 0.77189963013E+01
 0.76813352374E+01 0.74292254157E+01 0.70095125098E+01 0.65093557168E+01 0.60222193358E+01
 0.56175615487E+01 0.53253074911E+01 0.51375307856E+01 0.50260701675E+01 0.49723083566E+01
 0.49650076066E+01 0.50022919624E+01 0.50928313401E+01 0.52519525479E+01 0.55067446275E+01
 0.58748967169E+01 0.63400003948E+01 0.68448974487E+01 0.73013112171E+01 0.76160812861E+01
 0.77255969511E+01 0.76237386568E+01 0.73697966001E+01 0.70712760586E+01 0.68472539574E+01
 0.67857054255E+01 0.69106517527E+01 0.71721876540E+01 0.74649898020E+01 0.76700260472E+01
 0.77034762648E+01 0.76700259718E+01 0.74649899645E+01 0.71721878993E+01 0.69106518608E+01
 0.67857053730E+01 0.68472539143E+01 0.70712761338E+01 0.73697967411E+01 0.76237387916E+01
 0.77255970655E+01 0.76160813532E+01 0.73013112062E+01 0.68448974191E+01 0.63400004399E+01
 0.58748968096E+01 0.55067446609E+01 0.52519525178E+01 0.50928313393E+01 0.50022920028E+01
 0.49650076092E+01 0.49723083155E+01 0.50260701623E+01 0.51375308217E+01 0.53253074839E+01
 0.56175614776E+01 0.60222192699E+01 0.65093556818E+01 0.70095124675E+01 0.74292253677E+01