   1   1   0   0
  0.1836340E+02  0.2878668E-09  0.2878668E-09  0.2878668E-09  0.5000000E-15
  1.000000000000000E-004
  CAR 
 unknown system                          
     11.35008290     -3.23052128  301      5.75562855      1.00000000
     -3.231  0.0000E+00  0.0000E+00
     -3.182  0.0000E+00  0.0000E+00
     -3.133  0.0000E+00  0.0000E+00
     -3.085  0.0000E+00  0.0000E+00
     -3.036 -0.4889E-29 -0.2376E-30
     -2.988 -0.9124E-26 -0.4437E-27
     -2.939 -0.1057E-22 -0.5144E-24
     -2.890 -0.7604E-20 -0.3701E-21
     -2.842 -0.3390E-17 -0.1651E-18
     -2.793 -0.9064E-15 -0.4422E-16
     -2.745 -0.1537E-12 -0.7517E-14
     -2.696 -0.1606E-10 -0.7879E-12
     -2.647 -0.1028E-08 -0.5077E-10
     -2.599 -0.4015E-07 -0.2002E-08
     -2.550 -0.9460E-06 -0.4798E-07
     -2.501 -0.1321E-04 -0.6902E-06
     -2.453 -0.1055E-03 -0.5817E-05
     -2.404 -0.4379E-03 -0.2710E-04
     -2.356 -0.6062E-03 -0.5656E-04
     -2.307  0.1798E-02  0.3085E-04
     -2.258  0.8363E-02  0.4373E-03
     -2.210  0.1308E-01  0.1073E-02
     -2.161  0.9434E-02  0.1532E-02
     -2.113  0.2564E-02  0.1656E-02
     -2.064 -0.4934E-03  0.1632E-02
     -2.015 -0.5053E-03  0.1608E-02
     -1.967 -0.1368E-03  0.1601E-02
     -1.918 -0.1875E-04  0.1600E-02
     -1.870 -0.1456E-05  0.1600E-02
     -1.821 -0.6675E-07  0.1600E-02
     -1.772 -0.1843E-08  0.1600E-02
     -1.724 -0.3099E-10  0.1600E-02
     -1.675 -0.3193E-12  0.1600E-02
     -1.627 -0.2025E-14  0.1600E-02
     -1.578 -0.7310E-17  0.1600E-02
     -1.529 -0.8195E-31  0.1600E-02
     -1.481 -0.2266E-27  0.1600E-02
     -1.432 -0.3892E-24  0.1600E-02
     -1.384 -0.4150E-21  0.1600E-02
     -1.335 -0.2745E-18  0.1600E-02
     -1.286 -0.1125E-15  0.1600E-02
     -1.238 -0.2764E-13  0.1600E-02
     -1.189 -0.4308E-11  0.1600E-02
     -1.141 -0.4131E-09  0.1600E-02
     -1.092 -0.2428E-07  0.1600E-02
     -1.043 -0.8686E-06  0.1600E-02
     -0.995 -0.1871E-04  0.1599E-02
     -0.946 -0.2378E-03  0.1587E-02
     -0.898 -0.1710E-02  0.1504E-02
     -0.849 -0.6192E-02  0.1203E-02
     -0.800 -0.5627E-02  0.9300E-03
     -0.752  0.3238E-01  0.2504E-02
     -0.703  0.1152E+00  0.8103E-02
     -0.655  0.1567E+00  0.1572E-01
     -0.606  0.9823E-01  0.2049E-01
     -0.557  0.2022E-01  0.2148E-01
     -0.509 -0.7424E-02  0.2112E-01
     -0.460 -0.5124E-02  0.2087E-01
     -0.412 -0.1212E-02  0.2081E-01
     -0.363 -0.1497E-03  0.2080E-01
     -0.314 -0.1058E-04  0.2080E-01
     -0.266 -0.4433E-06  0.2080E-01
     -0.217 -0.1122E-07  0.2080E-01
     -0.169 -0.1731E-09  0.2080E-01
     -0.120 -0.1638E-11  0.2080E-01
     -0.071 -0.9561E-14  0.2080E-01
     -0.023 -0.7711E-24  0.2080E-01
      0.026 -0.7501E-21  0.2080E-01
      0.074 -0.4526E-18  0.2080E-01
      0.123 -0.1692E-15  0.2080E-01
      0.172 -0.3786E-13  0.2080E-01
      0.220 -0.5377E-11  0.2080E-01
      0.269 -0.4695E-09  0.2080E-01
      0.317 -0.2510E-07  0.2080E-01
      0.366 -0.8153E-06  0.2080E-01
      0.415 -0.1590E-04  0.2080E-01
      0.463 -0.1819E-03  0.2079E-01
      0.512 -0.1162E-02  0.2073E-01
      0.560 -0.3568E-02  0.2056E-01
      0.609 -0.1225E-02  0.2050E-01
      0.658  0.2310E-01  0.2162E-01
      0.706  0.6499E-01  0.2478E-01
      0.755  0.7617E-01  0.2848E-01
      0.803  0.4060E-01  0.3046E-01
      0.852  0.5374E-02  0.3072E-01
      0.901 -0.4030E-02  0.3052E-01
      0.949 -0.2118E-02  0.3042E-01
      0.998 -0.9998E-03  0.3037E-01
      1.046 -0.3239E-02  0.3021E-01
      1.095 -0.7904E-02  0.2983E-01
      1.144  0.3293E-02  0.2999E-01
      1.192  0.6395E-01  0.3310E-01
      1.241  0.1437E+00  0.4008E-01
      1.289  0.1420E+00  0.4698E-01
      1.338  0.5845E-01  0.4982E-01
      1.387 -0.1031E-01  0.4932E-01
      1.435 -0.1762E-01  0.4847E-01
      1.484  0.6912E-01  0.5183E-01
      1.532  0.2387E+00  0.6343E-01
      1.581  0.3117E+00  0.7858E-01
      1.630  0.1868E+00  0.8766E-01
      1.678  0.3460E-01  0.8934E-01
      1.727 -0.1540E-01  0.8859E-01
      1.775 -0.9666E-02  0.8812E-01
      1.824 -0.2196E-02  0.8801E-01
      1.873 -0.2627E-03  0.8800E-01
      1.921 -0.1803E-04  0.8800E-01
      1.970 -0.7547E-06  0.8800E-01
      2.018 -0.7078E-06  0.8800E-01
      2.067 -0.1467E-04  0.8800E-01
      2.116 -0.1909E-03  0.8799E-01
      2.164 -0.1502E-02  0.8792E-01
      2.213 -0.6894E-02  0.8758E-01
      2.262 -0.1586E-01  0.8681E-01
      2.310  0.1166E-03  0.8682E-01
      2.359  0.1071E+00  0.9202E-01
      2.407  0.3209E+00  0.1076E+00
      2.456  0.5184E+00  0.1328E+00
      2.505  0.5495E+00  0.1595E+00
      2.553  0.3847E+00  0.1782E+00
      2.602  0.1466E+00  0.1853E+00
      2.650  0.3908E-02  0.1855E+00
      2.699 -0.2092E-01  0.1845E+00
      2.748 -0.8730E-02  0.1841E+00
      2.796 -0.1679E-02  0.1840E+00
      2.845 -0.1785E-03  0.1840E+00
      2.893 -0.1109E-04  0.1840E+00
      2.942 -0.4295E-06  0.1840E+00
      2.991 -0.6641E-06  0.1840E+00
      3.039 -0.1538E-04  0.1840E+00
      3.088 -0.2142E-03  0.1840E+00
      3.136 -0.1705E-02  0.1839E+00
      3.185 -0.7047E-02  0.1836E+00
      3.234 -0.9649E-02  0.1831E+00
      3.282  0.2920E-01  0.1845E+00
      3.331  0.1345E+00  0.1910E+00
      3.379  0.2093E+00  0.2012E+00
      3.428  0.1503E+00  0.2085E+00
      3.477  0.4054E-01  0.2105E+00
      3.525 -0.7980E-02  0.2101E+00
      3.574 -0.8045E-02  0.2097E+00
      3.622 -0.2168E-02  0.2096E+00
      3.671 -0.2965E-03  0.2096E+00
      3.720 -0.3163E-04  0.2096E+00
      3.768 -0.1248E-03  0.2096E+00
      3.817 -0.1038E-02  0.2095E+00
      3.865 -0.4877E-02  0.2093E+00
      3.914 -0.1057E-01  0.2088E+00
      3.963  0.4634E-02  0.2090E+00
      4.011  0.8257E-01  0.2130E+00
      4.060  0.2006E+00  0.2228E+00
      4.108  0.2405E+00  0.2345E+00
      4.157  0.2285E+00  0.2456E+00
      4.206  0.4182E+00  0.2659E+00
      4.254  0.7210E+00  0.3009E+00
      4.303  0.6559E+00  0.3328E+00
      4.351  0.2555E+00  0.3452E+00
      4.400  0.6373E-02  0.3456E+00
      4.449  0.7554E-01  0.3492E+00
      4.497  0.2623E+00  0.3620E+00
      4.546  0.2925E+00  0.3762E+00
      4.594  0.1407E+00  0.3830E+00
      4.643  0.1172E-01  0.3836E+00
      4.692 -0.1665E-01  0.3828E+00
      4.740 -0.1099E-01  0.3823E+00
      4.789 -0.1458E-01  0.3815E+00
      4.837 -0.9011E-02  0.3811E+00
      4.886  0.7633E-01  0.3848E+00
      4.935  0.2438E+00  0.3967E+00
      4.983  0.3106E+00  0.4118E+00
      5.032  0.1816E+00  0.4206E+00
      5.080  0.3101E-01  0.4221E+00
      5.129 -0.1865E-01  0.4212E+00
      5.178 -0.1555E-01  0.4204E+00
      5.226  0.2434E-02  0.4205E+00
      5.275  0.4895E-01  0.4229E+00
      5.323  0.1141E+00  0.4285E+00
      5.372  0.1655E+00  0.4365E+00
      5.421  0.1731E+00  0.4449E+00
      5.469  0.1100E+00  0.4503E+00
      5.518  0.5923E-01  0.4532E+00
      5.566  0.1513E+00  0.4605E+00
      5.615  0.2875E+00  0.4745E+00
      5.664  0.2598E+00  0.4871E+00
      5.712  0.1484E+00  0.4943E+00
      5.761  0.1330E+00  0.5008E+00
      5.809  0.1732E+00  0.5092E+00
      5.858  0.2327E+00  0.5205E+00
      5.907  0.3237E+00  0.5362E+00
      5.955  0.3127E+00  0.5514E+00
      6.004  0.1528E+00  0.5589E+00
      6.052  0.1165E-01  0.5594E+00
      6.101 -0.2540E-01  0.5582E+00
      6.150  0.5743E-02  0.5585E+00
      6.198  0.8649E-01  0.5627E+00
      6.247  0.1587E+00  0.5704E+00
      6.295  0.1459E+00  0.5775E+00
      6.344  0.1053E+00  0.5826E+00
      6.393  0.1284E+00  0.5888E+00
      6.441  0.1546E+00  0.5964E+00
      6.490  0.9987E-01  0.6012E+00
      6.538  0.2238E-01  0.6023E+00
      6.587 -0.7281E-02  0.6019E+00
      6.636 -0.5499E-02  0.6017E+00
      6.684 -0.1359E-02  0.6016E+00
      6.733 -0.1740E-03  0.6016E+00
      6.781 -0.1272E-04  0.6016E+00
      6.830 -0.5508E-06  0.6016E+00
      6.879 -0.1439E-07  0.6016E+00
      6.927 -0.2290E-09  0.6016E+00
      6.976 -0.2264E-11  0.6016E+00
      7.025 -0.4775E-11  0.6016E+00
      7.073 -0.4848E-09  0.6016E+00
      7.122 -0.3026E-07  0.6016E+00
      7.170 -0.1151E-05  0.6016E+00
      7.219 -0.2641E-04  0.6016E+00
      7.268 -0.3586E-03  0.6016E+00
      7.316 -0.2775E-02  0.6014E+00
      7.365 -0.1107E-01  0.6009E+00
      7.413 -0.1378E-01  0.6002E+00
      7.462  0.4924E-01  0.6026E+00
      7.511  0.2098E+00  0.6128E+00
      7.559  0.3145E+00  0.6281E+00
      7.608  0.2177E+00  0.6387E+00
      7.656  0.5484E-01  0.6414E+00
      7.705 -0.1325E-01  0.6407E+00
      7.754 -0.1354E-01  0.6401E+00
      7.802 -0.9649E-02  0.6396E+00
      7.851 -0.4764E-02  0.6394E+00
      7.899  0.3846E-01  0.6412E+00
      7.948  0.1222E+00  0.6472E+00
      7.997  0.1552E+00  0.6547E+00
      8.045  0.9043E-01  0.6591E+00
      8.094  0.1560E-01  0.6599E+00
      8.142 -0.7828E-02  0.6595E+00
      8.191 -0.4656E-02  0.6593E+00
      8.240 -0.1032E-02  0.6592E+00
      8.288 -0.1211E-03  0.6592E+00
      8.337 -0.9963E-05  0.6592E+00
      8.385 -0.3889E-04  0.6592E+00
      8.434 -0.4873E-03  0.6592E+00
      8.483 -0.3481E-02  0.6590E+00
      8.531 -0.1250E-01  0.6584E+00
      8.580 -0.1098E-01  0.6579E+00
      8.628  0.6621E-01  0.6611E+00
      8.677  0.2322E+00  0.6724E+00
      8.726  0.3131E+00  0.6876E+00
      8.774  0.1946E+00  0.6970E+00
      8.823  0.3927E-01  0.6990E+00
      8.871 -0.1497E-01  0.6982E+00
      8.920 -0.1015E-01  0.6977E+00
      8.969 -0.2600E-02  0.6976E+00
      9.017 -0.2225E-02  0.6975E+00
      9.066 -0.8963E-02  0.6971E+00
      9.114 -0.1587E-01  0.6963E+00
      9.163  0.2762E-01  0.6976E+00
      9.212  0.1736E+00  0.7061E+00
      9.260  0.3042E+00  0.7208E+00
      9.309  0.2421E+00  0.7326E+00
      9.357  0.9697E-01  0.7373E+00
      9.406  0.8143E-01  0.7413E+00
      9.455  0.1401E+00  0.7481E+00
      9.503  0.1143E+00  0.7536E+00
      9.552  0.3134E-01  0.7552E+00
      9.600  0.1422E-01  0.7559E+00
      9.649  0.8852E-01  0.7602E+00
      9.698  0.1542E+00  0.7677E+00
      9.746  0.1177E+00  0.7734E+00
      9.795  0.3466E-01  0.7751E+00
      9.843 -0.5182E-02  0.7748E+00
      9.892 -0.6402E-02  0.7745E+00
      9.941 -0.2161E-02  0.7744E+00
      9.989 -0.2266E-02  0.7743E+00
     10.038 -0.5228E-02  0.7740E+00
     10.086  0.1192E-02  0.7741E+00
     10.135  0.3922E-01  0.7760E+00
     10.184  0.9023E-01  0.7804E+00
     10.232  0.9257E-01  0.7849E+00
     10.281  0.6432E-01  0.7880E+00
     10.329  0.7812E-01  0.7918E+00
     10.378  0.9934E-01  0.7966E+00
     10.427  0.6472E-01  0.7998E+00
     10.475  0.1399E-01  0.8005E+00
     10.524 -0.4889E-02  0.8002E+00
     10.572 -0.3506E-02  0.8000E+00
     10.621 -0.8440E-03  0.8000E+00
     10.670 -0.1057E-03  0.8000E+00
     10.718 -0.7568E-05  0.8000E+00
     10.767 -0.3212E-06  0.8000E+00
     10.815 -0.8227E-08  0.8000E+00
     10.864 -0.1284E-09  0.8000E+00
     10.913 -0.1230E-11  0.8000E+00
     10.961 -0.7251E-14  0.8000E+00
     11.010  0.0000E+00  0.8000E+00
     11.058  0.0000E+00  0.8000E+00
     11.107  0.0000E+00  0.8000E+00
     11.156  0.0000E+00  0.8000E+00
     11.204  0.0000E+00  0.8000E+00
     11.253  0.0000E+00  0.8000E+00
     11.301  0.0000E+00  0.8000E+00
     11.350  0.0000E+00  0.8000E+00
