    1    1   10    1
  0.1836340E+02  0.2878668E-09  0.2878668E-09  0.2878668E-09  0.5000000E-15
  1.000000000000000E-004
  CAR 
 unknown system                          
    5   10    4
 
  0.0000000E+00  0.0000000E+00  0.0000000E+00  0.8000000E-02
   1       -2.230521
   2        6.311207
   3        6.311207
   4        6.311207
 
  0.2000000E+00  0.0000000E+00  0.0000000E+00  0.9600000E-01
   1       -0.683756
   2        5.409550
   3        5.761695
   4        7.963114
 
  0.4000000E+00  0.0000000E+00  0.0000000E+00  0.9600000E-01
   1        1.240356
   2        4.268754
   3        6.231485
   4        9.440162
 
  0.2000000E+00  0.2000000E+00  0.0000000E+00  0.1920000E+00
   1        1.549282
   2        4.501399
   3        4.950007
   4        8.695909
 
  0.4000000E+00  0.2000000E+00 -0.1387779E-16  0.1920000E+00
   1        2.428187
   2        4.238382
   3        5.605947
   4        9.246749
 
  0.2000000E+00  0.2000000E+00  0.2000000E+00  0.6400000E-01
   1        4.037504
   2        4.095695
   3        4.095696
   4       10.350083
 
 -0.2000000E+00  0.2000000E+00  0.2000000E+00  0.4800000E-01
   1        0.716362
   2        5.840050
   3        6.415229
   4        6.415230
 
 -0.4000000E+00  0.4000000E+00  0.2000000E+00  0.1920000E+00
   1        2.513186
   2        4.249256
   3        5.916020
   4        7.535943
 
 -0.4000000E+00 -0.4000000E+00  0.2000000E+00  0.6400000E-01
   1        3.358438
   2        3.358439
   3        5.310768
   4       10.185138
 
 -0.4000000E+00  0.4000000E+00  0.4000000E+00  0.4800000E-01
   1        2.372318
   2        2.467925
   3        9.679801
   4        9.679806
