       N       E                     dE             d eps       ncg     rms          rms(c)
DAV:   1     0.968483288985E+01    0.96848E+01   -0.21738E+03    80   0.117E+03
DAV:   2    -0.119790525741E+02   -0.21664E+02   -0.21258E+02   124   0.145E+02
DAV:   3    -0.122974084834E+02   -0.31836E+00   -0.31727E+00   120   0.216E+01
DAV:   4    -0.123002353507E+02   -0.28269E-02   -0.27443E-02   116   0.133E+00
DAV:   5    -0.123002433125E+02   -0.79617E-05   -0.79613E-05   104   0.624E-02    0.327E+00
DAV:   6    -0.119572093026E+02    0.34303E+00   -0.21684E-01    88   0.529E+00    0.181E+00
DAV:   7    -0.117930672760E+02    0.16414E+00   -0.36417E-01    88   0.659E+00    0.150E-01
DAV:   8    -0.117922561820E+02    0.81109E-03   -0.38266E-03    96   0.653E-01    0.432E-02
DAV:   9    -0.117921956195E+02    0.60562E-04   -0.29583E-04    64   0.175E-01
   1 F= -.11792196E+02 E0= -.11792637E+02  d E =-.117922E+02
