<?xml version="1.0" encoding="ISO-8859-1"?>
<modeling>
 <generator>
  <i name="program" type="string">vasp </i>
  <i name="version" type="string">5.2.12  </i>
  <i name="subversion" type="string">11Nov11 complex                                                      parallel </i>
  <i name="platform" type="string">LinuxIFC </i>
  <i name="date" type="string">2012 10 24 </i>
  <i name="time" type="string">18:47:00 </i>
 </generator>
 <incar>
  <i type="string" name="PREC">normal</i>
  <i type="int" name="IBRION">     2</i>
  <i type="int" name="NSW">    10</i>
  <i name="ENCUT">    700.00000000</i>
  <i type="int" name="NBANDS">     4</i>
  <i type="int" name="ISMEAR">     1</i>
  <i name="SIGMA">      0.10000000</i>
 </incar>
 <kpoints>
  <generation param="Monkhorst-Pack">
   <v type="int" name="divisions">       5        5        5 </v>
   <v name="usershift">      0.00000000       0.00000000       0.00000000 </v>
   <v name="genvec1">      0.20000000       0.00000000       0.00000000 </v>
   <v name="genvec2">      0.00000000       0.20000000       0.00000000 </v>
   <v name="genvec3">      0.00000000       0.00000000       0.20000000 </v>
   <v name="shift">      0.00000000       0.00000000       0.00000000 </v>
  </generation>
  <varray name="kpointlist" >
   <v>       0.00000000       0.00000000       0.00000000 </v>
   <v>       0.20000000       0.00000000       0.00000000 </v>
   <v>       0.40000000       0.00000000       0.00000000 </v>
   <v>       0.20000000       0.20000000       0.00000000 </v>
   <v>       0.40000000       0.20000000       0.00000000 </v>
   <v>       0.20000000       0.20000000       0.20000000 </v>
   <v>      -0.20000000       0.20000000       0.20000000 </v>
   <v>      -0.40000000       0.40000000       0.20000000 </v>
   <v>      -0.40000000      -0.40000000       0.20000000 </v>
   <v>      -0.40000000       0.40000000       0.40000000 </v>
  </varray>
  <varray name="weights" >
   <v>       0.00800000 </v>
   <v>       0.09600000 </v>
   <v>       0.09600000 </v>
   <v>       0.19200000 </v>
   <v>       0.19200000 </v>
   <v>       0.06400000 </v>
   <v>       0.04800000 </v>
   <v>       0.19200000 </v>
   <v>       0.06400000 </v>
   <v>       0.04800000 </v>
  </varray>
 </kpoints>
 <parameters>
  <separator name="general" >
   <i type="string" name="SYSTEM">unknown system</i>
   <i type="logical" name="LCOMPAT"> F  </i>
  </separator>
  <separator name="electronic" >
   <i type="string" name="PREC">normal</i>
   <i name="ENMAX">    700.00000000</i>
   <i name="ENAUG">    332.07500000</i>
   <i name="EDIFF">      0.00010000</i>
   <i type="int" name="IALGO">    38</i>
   <i type="int" name="IWAVPR">    11</i>
   <i type="int" name="NBANDS">     4</i>
   <i name="NELECT">      5.00000000</i>
   <i type="int" name="TURBO">     0</i>
   <i type="int" name="IRESTART">     0</i>
   <i type="int" name="NREBOOT">     0</i>
   <i type="int" name="NMIN">     0</i>
   <i name="EREF">      0.00000000</i>
   <separator name="electronic smearing" >
    <i type="int" name="ISMEAR">     1</i>
    <i name="SIGMA">      0.10000000</i>
    <i name="KSPACING">      0.50000000</i>
    <i type="logical" name="KGAMMA"> T  </i>
   </separator>
   <separator name="electronic projectors" >
    <i type="logical" name="LREAL"> F  </i>
    <v name="ROPT">      0.00000000</v>
    <i type="int" name="LMAXPAW">  -100</i>
    <i type="int" name="LMAXMIX">     2</i>
    <i type="logical" name="NLSPLINE"> F  </i>
   </separator>
   <separator name="electronic startup" >
    <i type="int" name="ISTART">     0</i>
    <i type="int" name="ICHARG">     2</i>
    <i type="int" name="INIWAV">     1</i>
   </separator>
   <separator name="electronic spin" >
    <i type="int" name="ISPIN">     1</i>
    <i type="logical" name="LNONCOLLINEAR"> F  </i>
    <v name="MAGMOM">      1.00000000</v>
    <i name="NUPDOWN">     -1.00000000</i>
    <i type="logical" name="LSORBIT"> F  </i>
    <v name="SAXIS">      0.00000000      0.00000000      1.00000000</v>
    <i type="logical" name="LSPIRAL"> F  </i>
    <v name="QSPIRAL">      0.00000000      0.00000000      0.00000000</v>
    <i type="logical" name="LZEROZ"> F  </i>
   </separator>
   <separator name="electronic exchange-correlation" >
    <i type="logical" name="LASPH"> F  </i>
    <i type="logical" name="LMETAGGA"> F  </i>
   </separator>
   <separator name="electronic convergence" >
    <i type="int" name="NELM">    60</i>
    <i type="int" name="NELMDL">    -5</i>
    <i type="int" name="NELMIN">     2</i>
    <i name="ENINI">    700.00000000</i>
    <separator name="electronic convergence detail" >
     <i type="logical" name="LDIAG"> T  </i>
     <i type="logical" name="LSUBROT"> T  </i>
     <i name="WEIMIN">      0.00100000</i>
     <i name="EBREAK">      0.00000625</i>
     <i name="DEPER">      0.30000000</i>
     <i type="int" name="NRMM">     4</i>
     <i name="TIME">      0.40000000</i>
    </separator>
   </separator>
   <separator name="electronic mixer" >
    <i name="AMIX">      0.40000000</i>
    <i name="BMIX">      1.00000000</i>
    <i name="AMIN">      0.10000000</i>
    <i name="AMIX_MAG">      1.60000000</i>
    <i name="BMIX_MAG">      1.00000000</i>
    <separator name="electronic mixer details" >
     <i type="int" name="IMIX">     4</i>
     <i type="int" name="MAXMIX">   -45</i>
     <i name="WC">    100.00000000</i>
     <i type="int" name="INIMIX">     1</i>
     <i type="int" name="MIXPRE">     1</i>
     <i type="int" name="MREMOVE">     5</i>
    </separator>
   </separator>
   <separator name="electronic dipolcorrection" >
    <i type="logical" name="LDIPOL"> F  </i>
    <i type="logical" name="LMONO"> F  </i>
    <i type="int" name="IDIPOL">     0</i>
    <i name="EPSILON">      1.00000000</i>
    <v name="DIPOL">   -100.00000000   -100.00000000   -100.00000000</v>
    <i name="EFIELD">      0.00000000</i>
   </separator>
  </separator>
  <separator name="grids" >
   <i type="int" name="NGX">    20</i>
   <i type="int" name="NGY">    20</i>
   <i type="int" name="NGZ">    20</i>
   <i type="int" name="NGXF">    40</i>
   <i type="int" name="NGYF">    40</i>
   <i type="int" name="NGZF">    40</i>
   <i type="logical" name="ADDGRID"> F  </i>
  </separator>
  <separator name="ionic" >
   <i type="int" name="NSW">    10</i>
   <i type="int" name="IBRION">     2</i>
   <i type="int" name="ISIF">     2</i>
   <i name="PSTRESS">      0.00000000</i>
   <i name="EDIFFG">      0.00100000</i>
   <i type="int" name="NFREE">     1</i>
   <i name="POTIM">      0.50000000</i>
   <i name="SMASS">     -3.00000000</i>
   <i name="SCALEE">      1.00000000</i>
  </separator>
  <separator name="ionic md" >
   <i name="TEBEG">      0.00010000</i>
   <i name="TEEND">      0.00010000</i>
   <i type="int" name="NBLOCK">     1</i>
   <i type="int" name="KBLOCK">    10</i>
   <i type="int" name="NPACO">   256</i>
   <i name="APACO">     16.00000000</i>
  </separator>
  <separator name="symmetry" >
   <i type="int" name="ISYM">     2</i>
   <i name="SYMPREC">      0.00001000</i>
  </separator>
  <separator name="dos" >
   <i type="logical" name="LORBIT"> F  </i>
   <v name="RWIGS">     -1.00000000</v>
   <i type="int" name="NEDOS">   301</i>
   <i name="EMIN">     10.00000000</i>
   <i name="EMAX">    -10.00000000</i>
   <i name="EFERMI">      0.00000000</i>
  </separator>
  <separator name="writing" >
   <i type="int" name="NWRITE">     2</i>
   <i type="logical" name="LWAVE"> T  </i>
   <i type="logical" name="LCHARG"> T  </i>
   <i type="logical" name="LPARD"> F  </i>
   <i type="logical" name="LVTOT"> F  </i>
   <i type="logical" name="LVHAR"> F  </i>
   <i type="logical" name="LELF"> F  </i>
   <i type="logical" name="LOPTICS"> F  </i>
   <v name="STM">      0.00000000      0.00000000      0.00000000      0.00000000      0.00000000      0.00000000      0.00000000</v>
  </separator>
  <separator name="performance" >
   <i type="int" name="NPAR">     1</i>
   <i type="int" name="NSIM">     4</i>
   <i type="int" name="NBLK">    -1</i>
   <i type="logical" name="LPLANE"> T  </i>
   <i type="logical" name="LSCALAPACK"> F  </i>
   <i type="logical" name="LSCAAWARE"> F  </i>
   <i type="logical" name="LSCALU"> F  </i>
   <i type="logical" name="LASYNC"> F  </i>
   <i type="logical" name="LORBITALREAL"> F  </i>
  </separator>
  <separator name="miscellaneous" >
   <i type="int" name="IDIOT">     3</i>
   <i type="logical" name="LMUSIC"> F  </i>
   <v name="POMASS">    180.94800000</v>
   <v name="DARWINR">      0.00000000</v>
   <v name="DARWINV">      1.00000000</v>
   <i type="logical" name="LCORR"> T  </i>
  </separator>
  <i type="logical" name="GGA_COMPAT"> T  </i>
  <i type="logical" name="LBERRY"> F  </i>
  <i type="int" name="ICORELEVEL">     0</i>
  <i type="logical" name="LDAU"> F  </i>
  <i type="int" name="I_CONSTRAINED_M">     0</i>
  <separator name="electronic exchange-correlation" >
   <i type="string" name="GGA">--</i>
   <i type="int" name="VOSKOWN">     0</i>
   <i type="logical" name="LHFCALC"> F  </i>
   <i type="string" name="PRECFOCK"></i>
   <i type="logical" name="LHFONE"> F  </i>
   <i type="logical" name="LRHFCALC"> F  </i>
   <i type="logical" name="LTHOMAS"> F  </i>
   <i type="logical" name="LMODELHF"> F  </i>
   <i name="ENCUT4O">     -1.00000000</i>
   <i type="int" name="EXXOEP">     0</i>
   <i type="int" name="FOURORBIT">     0</i>
   <i name="AEXX">      0.00000000</i>
   <i name="HFALPHA">      0.00000000</i>
   <i name="ALDAX">      1.00000000</i>
   <i name="AGGAX">      1.00000000</i>
   <i name="ALDAC">      1.00000000</i>
   <i name="AGGAC">      1.00000000</i>
   <i type="int" name="NKREDX">     1</i>
   <i type="int" name="NKREDY">     1</i>
   <i type="int" name="NKREDZ">     1</i>
   <i type="logical" name="SHIFTRED"> F  </i>
   <i type="logical" name="ODDONLY"> F  </i>
   <i type="logical" name="EVENONLY"> F  </i>
   <i type="int" name="LMAXFOCK">     0</i>
   <i type="int" name="NMAXFOCKAE">     0</i>
   <i type="logical" name="LFOCKAEDFT"> F  </i>
   <i name="HFSCREEN">      0.00000000</i>
   <i name="HFSCREENC">      0.00000000</i>
  </separator>
  <separator name="vdW DFT" >
   <i type="logical" name="LUSE_VDW"> F  </i>
   <i name="Zab_VDW">     -0.84910000</i>
   <i name="PARAM1">      0.12340000</i>
   <i name="PARAM2">      1.00000000</i>
   <i name="PARAM3">      0.00000000</i>
  </separator>
  <separator name="model GW" >
   <i type="int" name="MODEL_GW">     0</i>
   <i name="MODEL_EPS0">     11.01803887</i>
   <i name="MODEL_ALPHA">      1.00000000</i>
  </separator>
  <separator name="linear response parameters" >
   <i type="logical" name="LEPSILON"> F  </i>
   <i type="logical" name="LRPA"> F  </i>
   <i type="logical" name="LNABLA"> F  </i>
   <i type="logical" name="LVEL"> F  </i>
   <i type="int" name="KINTER">     0</i>
   <i name="CSHIFT">      0.10000000</i>
   <i name="OMEGAMAX">     -1.00000000</i>
  </separator>
  <separator name="orbital magnetization" >
   <i type="logical" name="NUCIND"> F  </i>
   <v name="MAGPOS">      0.00000000      0.00000000      0.00000000</v>
   <i type="logical" name="LNICSALL"> T  </i>
   <i type="logical" name="ORBITALMAG"> F  </i>
   <i type="logical" name="LMAGBLOCH"> F  </i>
   <i type="logical" name="LCHIMAG"> F  </i>
   <i type="logical" name="LGAUGE"> T  </i>
   <i type="int" name="MAGATOM">     0</i>
   <v name="MAGDIPOL">      0.00000000      0.00000000      0.00000000</v>
   <v name="AVECCONST">      0.00000000      0.00000000      0.00000000</v>
  </separator>
  <separator name="response functions" >
   <i type="logical" name="LADDER"> F  </i>
   <i type="logical" name="LHARTREE"> T  </i>
   <i type="int" name="IBSE">     0</i>
   <i type="logical" name="LTCTE"> F  </i>
   <i type="logical" name="LTETE"> F  </i>
   <i type="logical" name="LFXCEPS"> F  </i>
   <i type="logical" name="L2ORDER"> F  </i>
   <i type="logical" name="LUSEW"> F  </i>
   <i name="ENCUTGW">     -2.00000000</i>
   <i name="ENCUTGWSOFT">     -2.00000000</i>
   <i name="ENCUTLF">     -1.00000000</i>
   <i type="int" name="LMAXMP2">    -1</i>
   <i name="SCISSOR">      0.00000000</i>
   <i type="int" name="NOMEGA">     0</i>
   <i type="int" name="NOMEGAR">     0</i>
   <i type="int" name="NBANDSGW">    -1</i>
   <i type="int" name="NBANDSO">    -1</i>
   <i type="int" name="NBANDSV">    -1</i>
   <i name="OPTEMAX">      0.00000000</i>
   <i type="int" name="NELM">     1</i>
   <i type="int" name="DIM">     3</i>
   <i type="int" name="ANTIRES">     0</i>
   <i name="OMEGAMAX">    -30.00000000</i>
   <i name="OMEGATL">   -200.00000000</i>
   <i type="int" name="OMEGAGRID">     0</i>
   <i name="CSHIFT">     -0.10000000</i>
   <i type="logical" name="SELFENERGY"> F  </i>
   <i type="logical" name="LSPECTRAL"> F  </i>
   <i type="logical" name="ODDONLYGW"> F  </i>
   <i type="logical" name="EVENONLYGW"> F  </i>
   <i type="int" name="NKREDLFX">     1</i>
   <i type="int" name="NKREDLFY">     1</i>
   <i type="int" name="NKREDLFZ">     1</i>
   <i type="int" name="MAXMEM">  1800</i>
   <i type="int" name="TELESCOPE">     0</i>
  </separator>
 </parameters>
 <atominfo>
  <atoms>       1 </atoms>
  <types>       1 </types>
  <array name="atoms" >
   <dimension dim="1">ion</dimension>
   <field type="string">element</field>
   <field type="int">atomtype</field>
   <set>
    <rc><c>Ta</c><c>   1</c></rc>
   </set>
  </array>
  <array name="atomtypes" >
   <dimension dim="1">type</dimension>
   <field type="int">atomspertype</field>
   <field type="string">element</field>
   <field>mass</field>
   <field>valence</field>
   <field type="string">pseudopotential</field>
   <set>
    <rc><c>   1</c><c>Ta</c><c>    180.94800000</c><c>      5.00000000</c><c>  PAW_PBE Ta 17Jan2003                  </c></rc>
   </set>
  </array>
 </atominfo>
 <structure name="initialpos" >
  <crystal>
   <varray name="basis" >
    <v>       1.66200000       1.66200000      -1.66200000 </v>
    <v>      -1.66200000       1.66200000       1.66200000 </v>
    <v>       1.66200000      -1.66200000       1.66200000 </v>
   </varray>
   <i name="volume">     18.36339811 </i>
   <varray name="rec_basis" >
    <v>       0.30084236       0.30084236       0.00000000 </v>
    <v>       0.00000000       0.30084236       0.30084236 </v>
    <v>       0.30084236       0.00000000       0.30084236 </v>
   </varray>
  </crystal>
  <varray name="positions" >
   <v>       0.00000000       0.00000000       0.00000000 </v>
  </varray>
 </structure>
 <calculation>
  <scstep>
   <time name="dav">    0.11    0.14</time>
   <time name="total">    0.22    0.32</time>
   <energy>
    <i name="alphaZ">     30.19853388 </i>
    <i name="ewald">   -197.06749066 </i>
    <i name="hartreedc">     -2.57833668 </i>
    <i name="XCdc">    -66.71140354 </i>
    <i name="pawpsdc">    148.27821850 </i>
    <i name="pawaedc">    -73.99089003 </i>
    <i name="eentropy">     -0.00369901 </i>
    <i name="bandstr">     40.90961787 </i>
    <i name="atom">    130.65028256 </i>
    <i name="e_fr_energy">      9.68483289 </i>
    <i name="e_wo_entrp">      9.68853190 </i>
    <i name="e_0_energy">      9.68606589 </i>
   </energy>
  </scstep>
  <scstep>
   <time name="dav">    0.16    0.24</time>
   <time name="total">    0.16    0.32</time>
   <energy>
    <i name="e_fr_energy">    -11.97905257 </i>
    <i name="e_wo_entrp">    -11.98114445 </i>
    <i name="e_0_energy">    -11.97974987 </i>
   </energy>
  </scstep>
  <scstep>
   <time name="dav">    0.16    0.29</time>
   <time name="total">    0.16    0.33</time>
   <energy>
    <i name="e_fr_energy">    -12.29740848 </i>
    <i name="e_wo_entrp">    -12.29562871 </i>
    <i name="e_0_energy">    -12.29681522 </i>
   </energy>
  </scstep>
  <scstep>
   <time name="dav">    0.16    0.19</time>
   <time name="total">    0.16    0.21</time>
   <energy>
    <i name="e_fr_energy">    -12.30023535 </i>
    <i name="e_wo_entrp">    -12.29922261 </i>
    <i name="e_0_energy">    -12.29989777 </i>
   </energy>
  </scstep>
  <scstep>
   <time name="dav">    0.15    0.25</time>
   <time name="total">    0.20    0.36</time>
   <energy>
    <i name="e_fr_energy">    -12.30024331 </i>
    <i name="e_wo_entrp">    -12.29923180 </i>
    <i name="e_0_energy">    -12.29990614 </i>
   </energy>
  </scstep>
  <scstep>
   <time name="dav">    0.13    0.24</time>
   <time name="total">    0.29    0.51</time>
   <energy>
    <i name="e_fr_energy">    -11.95720930 </i>
    <i name="e_wo_entrp">    -11.95450020 </i>
    <i name="e_0_energy">    -11.95630627 </i>
   </energy>
  </scstep>
  <scstep>
   <time name="dav">    0.13    0.26</time>
   <time name="total">    0.27    0.51</time>
   <energy>
    <i name="e_fr_energy">    -11.79306728 </i>
    <i name="e_wo_entrp">    -11.79425746 </i>
    <i name="e_0_energy">    -11.79346401 </i>
   </energy>
  </scstep>
  <scstep>
   <time name="dav">    0.13    0.14</time>
   <time name="total">    0.29    0.49</time>
   <energy>
    <i name="e_fr_energy">    -11.79225618 </i>
    <i name="e_wo_entrp">    -11.79337134 </i>
    <i name="e_0_energy">    -11.79262790 </i>
   </energy>
  </scstep>
  <scstep>
   <time name="dav">    0.11    0.18</time>
   <time name="total">    0.22    0.38</time>
   <energy>
    <i name="alphaZ">     30.19853388 </i>
    <i name="ewald">   -197.06749066 </i>
    <i name="hartreedc">     -0.56762331 </i>
    <i name="XCdc">    -65.99627695 </i>
    <i name="pawpsdc">    190.39073714 </i>
    <i name="pawaedc">   -117.00706205 </i>
    <i name="eentropy">      0.00132461 </i>
    <i name="bandstr">     17.60537916 </i>
    <i name="atom">    130.65028256 </i>
    <i name="e_fr_energy">    -11.79219562 </i>
    <i name="e_wo_entrp">    -11.79352023 </i>
    <i name="e_0_energy">    -11.79263716 </i>
   </energy>
  </scstep>
  <parameters_embedded>
   <separator name="dft+d2" >
    <i type="logical" name="LVDW"> F  </i>
   </separator>
  </parameters_embedded>
  <structure>
   <crystal>
    <varray name="basis" >
     <v>       1.66200000       1.66200000      -1.66200000 </v>
     <v>      -1.66200000       1.66200000       1.66200000 </v>
     <v>       1.66200000      -1.66200000       1.66200000 </v>
    </varray>
    <i name="volume">     18.36339811 </i>
    <varray name="rec_basis" >
     <v>       0.30084236       0.30084236       0.00000000 </v>
     <v>       0.00000000       0.30084236       0.30084236 </v>
     <v>       0.30084236       0.00000000       0.30084236 </v>
    </varray>
   </crystal>
   <varray name="positions" >
    <v>       0.00000000       0.00000000       0.00000000 </v>
   </varray>
  </structure>
  <varray name="forces" >
   <v>       0.00000000       0.00000000       0.00000000 </v>
  </varray>
  <varray name="stress" >
   <v>       6.64745620       0.00000000       0.00000000 </v>
   <v>       0.00000000       6.64745620       0.00000000 </v>
   <v>       0.00000000       0.00000000       6.64745620 </v>
  </varray>
  <energy>
   <i name="e_fr_energy">    -11.79219562 </i>
   <i name="e_wo_entrp">    -11.79263716 </i>
   <i name="e_0_energy">      0.00132461 </i>
  </energy>
  <time name="totalsc">    2.73    4.83</time>
  <eigenvalues>
   <array>
    <dimension dim="1">band</dimension>
    <dimension dim="2">kpoint</dimension>
    <dimension dim="3">spin</dimension>
    <field>eigene</field>
    <field>occ</field>
    <set>
     <set comment="spin 1">
      <set comment="kpoint 1">
       <r>   -2.2305    1.0000 </r>
       <r>    6.3112    0.0000 </r>
       <r>    6.3112    0.0000 </r>
       <r>    6.3112    0.0000 </r>
      </set>
      <set comment="kpoint 2">
       <r>   -0.6838    1.0000 </r>
       <r>    5.4095    1.0000 </r>
       <r>    5.7617    0.4488 </r>
       <r>    7.9631    0.0000 </r>
      </set>
      <set comment="kpoint 3">
       <r>    1.2404    1.0000 </r>
       <r>    4.2688    1.0000 </r>
       <r>    6.2315    0.0000 </r>
       <r>    9.4402    0.0000 </r>
      </set>
      <set comment="kpoint 4">
       <r>    1.5493    1.0000 </r>
       <r>    4.5014    1.0000 </r>
       <r>    4.9500    1.0000 </r>
       <r>    8.6959    0.0000 </r>
      </set>
      <set comment="kpoint 5">
       <r>    2.4282    1.0000 </r>
       <r>    4.2384    1.0000 </r>
       <r>    5.6059    1.0278 </r>
       <r>    9.2467    0.0000 </r>
      </set>
      <set comment="kpoint 6">
       <r>    4.0375    1.0000 </r>
       <r>    4.0957    1.0000 </r>
       <r>    4.0957    1.0000 </r>
       <r>   10.3501    0.0000 </r>
      </set>
      <set comment="kpoint 7">
       <r>    0.7164    1.0000 </r>
       <r>    5.8400   -0.0005 </r>
       <r>    6.4152    0.0000 </r>
       <r>    6.4152    0.0000 </r>
      </set>
      <set comment="kpoint 8">
       <r>    2.5132    1.0000 </r>
       <r>    4.2493    1.0000 </r>
       <r>    5.9160   -0.0229 </r>
       <r>    7.5359    0.0000 </r>
      </set>
      <set comment="kpoint 9">
       <r>    3.3584    1.0000 </r>
       <r>    3.3584    1.0000 </r>
       <r>    5.3108    1.0000 </r>
       <r>   10.1851    0.0000 </r>
      </set>
      <set comment="kpoint 10">
       <r>    2.3723    1.0000 </r>
       <r>    2.4679    1.0000 </r>
       <r>    9.6798    0.0000 </r>
       <r>    9.6798    0.0000 </r>
      </set>
     </set>
    </set>
   </array>
  </eigenvalues>
  <separator name="orbital magnetization" >
   <v name="MAGDIPOLOUT">      0.00000000      0.00000000      0.00000000</v>
  </separator>
  <dos>
   <i name="efermi">      5.75562855 </i>
   <total>
    <array>
     <dimension dim="1">gridpoints</dimension>
     <dimension dim="2">spin</dimension>
     <field>energy</field>
     <field>total</field>
     <field>integrated</field>
     <set>
      <set comment="spin 1">
       <r>    -3.2305     0.0000     0.0000 </r>
       <r>    -3.1819     0.0000     0.0000 </r>
       <r>    -3.1333     0.0000     0.0000 </r>
       <r>    -3.0847     0.0000     0.0000 </r>
       <r>    -3.0361     0.0000     0.0000 </r>
       <r>    -2.9875     0.0000     0.0000 </r>
       <r>    -2.9389     0.0000     0.0000 </r>
       <r>    -2.8903     0.0000     0.0000 </r>
       <r>    -2.8417     0.0000     0.0000 </r>
       <r>    -2.7931     0.0000     0.0000 </r>
       <r>    -2.7445     0.0000     0.0000 </r>
       <r>    -2.6959     0.0000     0.0000 </r>
       <r>    -2.6473     0.0000     0.0000 </r>
       <r>    -2.5987     0.0000     0.0000 </r>
       <r>    -2.5501     0.0000     0.0000 </r>
       <r>    -2.5015    -0.0001     0.0000 </r>
       <r>    -2.4529    -0.0011    -0.0001 </r>
       <r>    -2.4043    -0.0044    -0.0003 </r>
       <r>    -2.3557    -0.0061    -0.0006 </r>
       <r>    -2.3071     0.0180     0.0003 </r>
       <r>    -2.2585     0.0836     0.0044 </r>
       <r>    -2.2099     0.1308     0.0107 </r>
       <r>    -2.1613     0.0943     0.0153 </r>
       <r>    -2.1127     0.0256     0.0166 </r>
       <r>    -2.0641    -0.0049     0.0163 </r>
       <r>    -2.0155    -0.0051     0.0161 </r>
       <r>    -1.9669    -0.0014     0.0160 </r>
       <r>    -1.9183    -0.0002     0.0160 </r>
       <r>    -1.8697     0.0000     0.0160 </r>
       <r>    -1.8211     0.0000     0.0160 </r>
       <r>    -1.7725     0.0000     0.0160 </r>
       <r>    -1.7239     0.0000     0.0160 </r>
       <r>    -1.6753     0.0000     0.0160 </r>
       <r>    -1.6267     0.0000     0.0160 </r>
       <r>    -1.5781     0.0000     0.0160 </r>
       <r>    -1.5295     0.0000     0.0160 </r>
       <r>    -1.4808     0.0000     0.0160 </r>
       <r>    -1.4322     0.0000     0.0160 </r>
       <r>    -1.3836     0.0000     0.0160 </r>
       <r>    -1.3350     0.0000     0.0160 </r>
       <r>    -1.2864     0.0000     0.0160 </r>
       <r>    -1.2378     0.0000     0.0160 </r>
       <r>    -1.1892     0.0000     0.0160 </r>
       <r>    -1.1406     0.0000     0.0160 </r>
       <r>    -1.0920     0.0000     0.0160 </r>
       <r>    -1.0434     0.0000     0.0160 </r>
       <r>    -0.9948    -0.0002     0.0160 </r>
       <r>    -0.9462    -0.0024     0.0159 </r>
       <r>    -0.8976    -0.0171     0.0150 </r>
       <r>    -0.8490    -0.0619     0.0120 </r>
       <r>    -0.8004    -0.0563     0.0093 </r>
       <r>    -0.7518     0.3238     0.0250 </r>
       <r>    -0.7032     1.1521     0.0810 </r>
       <r>    -0.6546     1.5670     0.1572 </r>
       <r>    -0.6060     0.9823     0.2049 </r>
       <r>    -0.5574     0.2022     0.2148 </r>
       <r>    -0.5088    -0.0742     0.2112 </r>
       <r>    -0.4602    -0.0512     0.2087 </r>
       <r>    -0.4116    -0.0121     0.2081 </r>
       <r>    -0.3630    -0.0015     0.2080 </r>
       <r>    -0.3144    -0.0001     0.2080 </r>
       <r>    -0.2658     0.0000     0.2080 </r>
       <r>    -0.2172     0.0000     0.2080 </r>
       <r>    -0.1686     0.0000     0.2080 </r>
       <r>    -0.1200     0.0000     0.2080 </r>
       <r>    -0.0714     0.0000     0.2080 </r>
       <r>    -0.0228     0.0000     0.2080 </r>
       <r>     0.0258     0.0000     0.2080 </r>
       <r>     0.0744     0.0000     0.2080 </r>
       <r>     0.1230     0.0000     0.2080 </r>
       <r>     0.1716     0.0000     0.2080 </r>
       <r>     0.2202     0.0000     0.2080 </r>
       <r>     0.2688     0.0000     0.2080 </r>
       <r>     0.3174     0.0000     0.2080 </r>
       <r>     0.3660     0.0000     0.2080 </r>
       <r>     0.4146    -0.0002     0.2080 </r>
       <r>     0.4632    -0.0018     0.2079 </r>
       <r>     0.5118    -0.0116     0.2073 </r>
       <r>     0.5604    -0.0357     0.2056 </r>
       <r>     0.6090    -0.0123     0.2050 </r>
       <r>     0.6576     0.2310     0.2162 </r>
       <r>     0.7062     0.6499     0.2478 </r>
       <r>     0.7548     0.7617     0.2848 </r>
       <r>     0.8034     0.4060     0.3046 </r>
       <r>     0.8520     0.0537     0.3072 </r>
       <r>     0.9006    -0.0403     0.3052 </r>
       <r>     0.9493    -0.0212     0.3042 </r>
       <r>     0.9979    -0.0100     0.3037 </r>
       <r>     1.0465    -0.0324     0.3021 </r>
       <r>     1.0951    -0.0790     0.2983 </r>
       <r>     1.1437     0.0329     0.2999 </r>
       <r>     1.1923     0.6395     0.3310 </r>
       <r>     1.2409     1.4365     0.4008 </r>
       <r>     1.2895     1.4202     0.4698 </r>
       <r>     1.3381     0.5845     0.4982 </r>
       <r>     1.3867    -0.1031     0.4932 </r>
       <r>     1.4353    -0.1762     0.4847 </r>
       <r>     1.4839     0.6912     0.5183 </r>
       <r>     1.5325     2.3868     0.6343 </r>
       <r>     1.5811     3.1173     0.7858 </r>
       <r>     1.6297     1.8683     0.8766 </r>
       <r>     1.6783     0.3460     0.8934 </r>
       <r>     1.7269    -0.1540     0.8859 </r>
       <r>     1.7755    -0.0967     0.8812 </r>
       <r>     1.8241    -0.0220     0.8801 </r>
       <r>     1.8727    -0.0026     0.8800 </r>
       <r>     1.9213    -0.0002     0.8800 </r>
       <r>     1.9699     0.0000     0.8800 </r>
       <r>     2.0185     0.0000     0.8800 </r>
       <r>     2.0671    -0.0001     0.8800 </r>
       <r>     2.1157    -0.0019     0.8799 </r>
       <r>     2.1643    -0.0150     0.8792 </r>
       <r>     2.2129    -0.0689     0.8758 </r>
       <r>     2.2615    -0.1586     0.8681 </r>
       <r>     2.3101     0.0012     0.8682 </r>
       <r>     2.3587     1.0714     0.9202 </r>
       <r>     2.4073     3.2087     1.0762 </r>
       <r>     2.4559     5.1838     1.3281 </r>
       <r>     2.5045     5.4950     1.5952 </r>
       <r>     2.5531     3.8466     1.7822 </r>
       <r>     2.6017     1.4663     1.8534 </r>
       <r>     2.6503     0.0391     1.8553 </r>
       <r>     2.6989    -0.2092     1.8452 </r>
       <r>     2.7475    -0.0873     1.8409 </r>
       <r>     2.7961    -0.0168     1.8401 </r>
       <r>     2.8447    -0.0018     1.8400 </r>
       <r>     2.8933    -0.0001     1.8400 </r>
       <r>     2.9419     0.0000     1.8400 </r>
       <r>     2.9905     0.0000     1.8400 </r>
       <r>     3.0391    -0.0002     1.8400 </r>
       <r>     3.0877    -0.0021     1.8399 </r>
       <r>     3.1363    -0.0170     1.8391 </r>
       <r>     3.1849    -0.0705     1.8356 </r>
       <r>     3.2335    -0.0965     1.8309 </r>
       <r>     3.2821     0.2920     1.8451 </r>
       <r>     3.3308     1.3447     1.9105 </r>
       <r>     3.3794     2.0933     2.0122 </r>
       <r>     3.4280     1.5033     2.0853 </r>
       <r>     3.4766     0.4054     2.1050 </r>
       <r>     3.5252    -0.0798     2.1011 </r>
       <r>     3.5738    -0.0804     2.0972 </r>
       <r>     3.6224    -0.0217     2.0962 </r>
       <r>     3.6710    -0.0030     2.0960 </r>
       <r>     3.7196    -0.0003     2.0960 </r>
       <r>     3.7682    -0.0012     2.0959 </r>
       <r>     3.8168    -0.0104     2.0954 </r>
       <r>     3.8654    -0.0488     2.0931 </r>
       <r>     3.9140    -0.1057     2.0879 </r>
       <r>     3.9626     0.0463     2.0902 </r>
       <r>     4.0112     0.8257     2.1303 </r>
       <r>     4.0598     2.0064     2.2278 </r>
       <r>     4.1084     2.4050     2.3447 </r>
       <r>     4.1570     2.2848     2.4558 </r>
       <r>     4.2056     4.1819     2.6590 </r>
       <r>     4.2542     7.2103     3.0094 </r>
       <r>     4.3028     6.5593     3.3282 </r>
       <r>     4.3514     2.5549     3.4524 </r>
       <r>     4.4000     0.0637     3.4555 </r>
       <r>     4.4486     0.7554     3.4922 </r>
       <r>     4.4972     2.6230     3.6197 </r>
       <r>     4.5458     2.9248     3.7619 </r>
       <r>     4.5944     1.4073     3.8303 </r>
       <r>     4.6430     0.1172     3.8359 </r>
       <r>     4.6916    -0.1665     3.8279 </r>
       <r>     4.7402    -0.1099     3.8225 </r>
       <r>     4.7888    -0.1458     3.8154 </r>
       <r>     4.8374    -0.0901     3.8110 </r>
       <r>     4.8860     0.7633     3.8481 </r>
       <r>     4.9346     2.4380     3.9666 </r>
       <r>     4.9832     3.1063     4.1176 </r>
       <r>     5.0318     1.8159     4.2059 </r>
       <r>     5.0804     0.3101     4.2209 </r>
       <r>     5.1290    -0.1865     4.2119 </r>
       <r>     5.1776    -0.1555     4.2043 </r>
       <r>     5.2262     0.0243     4.2055 </r>
       <r>     5.2748     0.4895     4.2293 </r>
       <r>     5.3234     1.1406     4.2847 </r>
       <r>     5.3720     1.6545     4.3651 </r>
       <r>     5.4206     1.7311     4.4493 </r>
       <r>     5.4692     1.1005     4.5028 </r>
       <r>     5.5178     0.5923     4.5315 </r>
       <r>     5.5664     1.5125     4.6051 </r>
       <r>     5.6150     2.8749     4.7448 </r>
       <r>     5.6636     2.5985     4.8711 </r>
       <r>     5.7122     1.4835     4.9432 </r>
       <r>     5.7609     1.3303     5.0078 </r>
       <r>     5.8095     1.7316     5.0920 </r>
       <r>     5.8581     2.3271     5.2051 </r>
       <r>     5.9067     3.2374     5.3624 </r>
       <r>     5.9553     3.1271     5.5144 </r>
       <r>     6.0039     1.5275     5.5887 </r>
       <r>     6.0525     0.1165     5.5943 </r>
       <r>     6.1011    -0.2540     5.5820 </r>
       <r>     6.1497     0.0574     5.5848 </r>
       <r>     6.1983     0.8649     5.6268 </r>
       <r>     6.2469     1.5870     5.7039 </r>
       <r>     6.2955     1.4589     5.7748 </r>
       <r>     6.3441     1.0529     5.8260 </r>
       <r>     6.3927     1.2836     5.8884 </r>
       <r>     6.4413     1.5463     5.9635 </r>
       <r>     6.4899     0.9987     6.0121 </r>
       <r>     6.5385     0.2238     6.0230 </r>
       <r>     6.5871    -0.0728     6.0194 </r>
       <r>     6.6357    -0.0550     6.0168 </r>
       <r>     6.6843    -0.0136     6.0161 </r>
       <r>     6.7329    -0.0017     6.0160 </r>
       <r>     6.7815    -0.0001     6.0160 </r>
       <r>     6.8301     0.0000     6.0160 </r>
       <r>     6.8787     0.0000     6.0160 </r>
       <r>     6.9273     0.0000     6.0160 </r>
       <r>     6.9759     0.0000     6.0160 </r>
       <r>     7.0245     0.0000     6.0160 </r>
       <r>     7.0731     0.0000     6.0160 </r>
       <r>     7.1217     0.0000     6.0160 </r>
       <r>     7.1703     0.0000     6.0160 </r>
       <r>     7.2189    -0.0003     6.0160 </r>
       <r>     7.2675    -0.0036     6.0158 </r>
       <r>     7.3161    -0.0278     6.0145 </r>
       <r>     7.3647    -0.1107     6.0091 </r>
       <r>     7.4133    -0.1378     6.0024 </r>
       <r>     7.4619     0.4924     6.0263 </r>
       <r>     7.5105     2.0979     6.1283 </r>
       <r>     7.5591     3.1451     6.2811 </r>
       <r>     7.6077     2.1766     6.3869 </r>
       <r>     7.6563     0.5484     6.4136 </r>
       <r>     7.7049    -0.1325     6.4071 </r>
       <r>     7.7535    -0.1354     6.4006 </r>
       <r>     7.8021    -0.0965     6.3959 </r>
       <r>     7.8507    -0.0476     6.3936 </r>
       <r>     7.8993     0.3846     6.4122 </r>
       <r>     7.9479     1.2225     6.4717 </r>
       <r>     7.9965     1.5522     6.5471 </r>
       <r>     8.0451     0.9043     6.5911 </r>
       <r>     8.0937     0.1560     6.5986 </r>
       <r>     8.1423    -0.0783     6.5948 </r>
       <r>     8.1910    -0.0466     6.5926 </r>
       <r>     8.2396    -0.0103     6.5921 </r>
       <r>     8.2882    -0.0012     6.5920 </r>
       <r>     8.3368    -0.0001     6.5920 </r>
       <r>     8.3854    -0.0004     6.5920 </r>
       <r>     8.4340    -0.0049     6.5917 </r>
       <r>     8.4826    -0.0348     6.5901 </r>
       <r>     8.5312    -0.1250     6.5840 </r>
       <r>     8.5798    -0.1098     6.5786 </r>
       <r>     8.6284     0.6621     6.6108 </r>
       <r>     8.6770     2.3218     6.7237 </r>
       <r>     8.7256     3.1314     6.8759 </r>
       <r>     8.7742     1.9457     6.9704 </r>
       <r>     8.8228     0.3927     6.9895 </r>
       <r>     8.8714    -0.1497     6.9822 </r>
       <r>     8.9200    -0.1015     6.9773 </r>
       <r>     8.9686    -0.0260     6.9760 </r>
       <r>     9.0172    -0.0222     6.9750 </r>
       <r>     9.0658    -0.0896     6.9706 </r>
       <r>     9.1144    -0.1587     6.9629 </r>
       <r>     9.1630     0.2762     6.9763 </r>
       <r>     9.2116     1.7356     7.0607 </r>
       <r>     9.2602     3.0417     7.2085 </r>
       <r>     9.3088     2.4205     7.3261 </r>
       <r>     9.3574     0.9697     7.3733 </r>
       <r>     9.4060     0.8143     7.4128 </r>
       <r>     9.4546     1.4010     7.4809 </r>
       <r>     9.5032     1.1429     7.5365 </r>
       <r>     9.5518     0.3134     7.5517 </r>
       <r>     9.6004     0.1422     7.5586 </r>
       <r>     9.6490     0.8852     7.6016 </r>
       <r>     9.6976     1.5422     7.6766 </r>
       <r>     9.7462     1.1767     7.7338 </r>
       <r>     9.7948     0.3466     7.7506 </r>
       <r>     9.8434    -0.0518     7.7481 </r>
       <r>     9.8920    -0.0640     7.7450 </r>
       <r>     9.9406    -0.0216     7.7439 </r>
       <r>     9.9892    -0.0227     7.7428 </r>
       <r>    10.0378    -0.0523     7.7403 </r>
       <r>    10.0864     0.0119     7.7409 </r>
       <r>    10.1350     0.3922     7.7599 </r>
       <r>    10.1836     0.9023     7.8038 </r>
       <r>    10.2322     0.9257     7.8488 </r>
       <r>    10.2808     0.6432     7.8800 </r>
       <r>    10.3294     0.7812     7.9180 </r>
       <r>    10.3780     0.9934     7.9663 </r>
       <r>    10.4266     0.6472     7.9977 </r>
       <r>    10.4752     0.1399     8.0045 </r>
       <r>    10.5238    -0.0489     8.0022 </r>
       <r>    10.5725    -0.0351     8.0005 </r>
       <r>    10.6211    -0.0084     8.0001 </r>
       <r>    10.6697    -0.0011     8.0000 </r>
       <r>    10.7183    -0.0001     8.0000 </r>
       <r>    10.7669     0.0000     8.0000 </r>
       <r>    10.8155     0.0000     8.0000 </r>
       <r>    10.8641     0.0000     8.0000 </r>
       <r>    10.9127     0.0000     8.0000 </r>
       <r>    10.9613     0.0000     8.0000 </r>
       <r>    11.0099     0.0000     8.0000 </r>
       <r>    11.0585     0.0000     8.0000 </r>
       <r>    11.1071     0.0000     8.0000 </r>
       <r>    11.1557     0.0000     8.0000 </r>
       <r>    11.2043     0.0000     8.0000 </r>
       <r>    11.2529     0.0000     8.0000 </r>
       <r>    11.3015     0.0000     8.0000 </r>
       <r>    11.3501     0.0000     8.0000 </r>
      </set>
     </set>
    </array>
   </total>
  </dos>
 </calculation>
 <structure name="finalpos" >
  <crystal>
   <varray name="basis" >
    <v>       1.66200000       1.66200000      -1.66200000 </v>
    <v>      -1.66200000       1.66200000       1.66200000 </v>
    <v>       1.66200000      -1.66200000       1.66200000 </v>
   </varray>
   <i name="volume">     18.36339811 </i>
   <varray name="rec_basis" >
    <v>       0.30084236       0.30084236       0.00000000 </v>
    <v>       0.00000000       0.30084236       0.30084236 </v>
    <v>       0.30084236       0.00000000       0.30084236 </v>
   </varray>
  </crystal>
  <varray name="positions" >
   <v>       0.00000000       0.00000000       0.00000000 </v>
  </varray>
 </structure>
</modeling>
